          ******************************************************
          *         GAMESS VERSION =  1 MAY 2013 (R1)          *
          *             FROM IOWA STATE UNIVERSITY             *
          * M.W.SCHMIDT, K.K.BALDRIDGE, J.A.BOATZ, S.T.ELBERT, *
          *   M.S.GORDON, J.H.JENSEN, S.KOSEKI, N.MATSUNAGA,   *
          *          K.A.NGUYEN, S.J.SU, T.L.WINDUS,           *
          *       TOGETHER WITH M.DUPUIS, J.A.MONTGOMERY       *
          *         J.COMPUT.CHEM.  14, 1347-1363(1993)        *
          ************ 64 BIT WINDOWS INTEL VERSION ************

  SINCE 1993, STUDENTS AND POSTDOCS WORKING AT IOWA STATE UNIVERSITY
  AND ALSO IN THEIR VARIOUS JOBS AFTER LEAVING ISU HAVE MADE IMPORTANT
  CONTRIBUTIONS TO THE CODE:
     IVANA ADAMOVIC, CHRISTINE AIKENS, YURI ALEXEEV, POOJA ARORA,
     ANDREY ASADCHEV, ROB BELL, PRADIPTA BANDYOPADHYAY, JONATHAN BENTZ,
     BRETT BODE, GALINA CHABAN, WEI CHEN, CHEOL HO CHOI, PAUL DAY,
     ALBERT DEFUSCO, TIM DUDLEY, DMITRI FEDOROV, GRAHAM FLETCHER,
     MARK FREITAG, KURT GLAESEMANN, DAN KEMP, GRANT MERRILL,
     NORIYUKI MINEZAWA, JONATHAN MULLIN, TAKESHI NAGATA,
     SEAN NEDD, HEATHER NETZLOFF, BOSILJKA NJEGIC, RYAN OLSON, MIKE PAK,
     JIM SHOEMAKER, LYUDMILA SLIPCHENKO, SAROM SOK, JIE SONG,
     TETSUYA TAKETSUGU, SIMON WEBB, SOOHAENG YOO, FEDERICO ZAHARIEV

  ADDITIONAL CODE HAS BEEN PROVIDED BY COLLABORATORS IN OTHER GROUPS:
     IOWA STATE UNIVERSITY:
          JOE IVANIC, LAIMUTIS BYTAUTAS, KLAUS RUEDENBERG
     UNIVERSITY OF TOKYO: KIMIHIKO HIRAO, TAKAHITO NAKAJIMA,
          TAKAO TSUNEDA, MUNEAKI KAMIYA, SUSUMU YANAGISAWA,
          KIYOSHI YAGI, MAHITO CHIBA, SEIKEN TOKURA, NAOAKI KAWAKAMI
     UNIVERSITY OF AARHUS: FRANK JENSEN
     UNIVERSITY OF IOWA: VISVALDAS KAIRYS, HUI LI
     NATIONAL INST. OF STANDARDS AND TECHNOLOGY: WALT STEVENS, DAVID GARMER
     UNIVERSITY OF PISA: BENEDETTA MENNUCCI, JACOPO TOMASI
     UNIVERSITY OF MEMPHIS: HENRY KURTZ, PRAKASHAN KORAMBATH
     UNIVERSITY OF ALBERTA: TOBY ZENG, MARIUSZ KLOBUKOWSKI
     UNIVERSITY OF NEW ENGLAND: MARK SPACKMAN
     MIE UNIVERSITY: HIROAKI UMEDA
     MICHIGAN STATE UNIVERSITY:
          KAROL KOWALSKI, MARTA WLOCH, JEFFREY GOUR, JESSE LUTZ,
          WEI LI, PIOTR PIECUCH
     UNIVERSITY OF SILESIA: MONIKA MUSIAL, STANISLAW KUCHARSKI
     FACULTES UNIVERSITAIRES NOTRE-DAME DE LA PAIX:
          OLIVIER QUINET, BENOIT CHAMPAGNE
     UNIVERSITY OF CALIFORNIA - SANTA BARBARA: BERNARD KIRTMAN
     INSTITUTE FOR MOLECULAR SCIENCE:
          KAZUYA ISHIMURA, MICHIO KATOUDA, AND SHIGERU NAGASE
     UNIVERSITY OF NOTRE DAME: DAN CHIPMAN
     KYUSHU UNIVERSITY:
          HARUYUKI NAKANO,
          FENG LONG GU, JACEK KORCHOWIEC, MARCIN MAKOWSKI, AND YURIKO AOKI,
          HIROTOSHI MORI AND EISAKU MIYOSHI
     PENNSYLVANIA STATE UNIVERSITY:
          TZVETELIN IORDANOV, CHET SWALINA, JONATHAN SKONE,
          SHARON HAMMES-SCHIFFER
     WASEDA UNIVERSITY:
          MASATO KOBAYASHI, TOMOKO AKAMA, TSUGUKI TOUMA,
          TAKESHI YOSHIKAWA, YASUHIRO IKABATA, HIROMI NAKAI
     NANJING UNIVERSITY: SHUHUA LI
     UNIVERSITY OF NEBRASKA:
          PEIFENG SU, DEJUN SI, NANDUN THELLAMUREGE, YALI WANG, HUI LI
     UNIVERSITY OF ZURICH:
          ROBERTO PEVERATI, KIM BALDRIDGE
     N. COPERNICUS UNIVERSITY AND JACKSON STATE UNIVERSITY:
          MARIA BARYSZ


 PARALLEL VERSION RUNNING ON     4 PROCESSORS IN     4 NODES.

 EXECUTION OF GAMESS BEGUN Thu Apr 13 18:09:06 2017

            ECHO OF THE FIRST FEW INPUT CARDS -
 INPUT CARD> $CONTRL SCFTYP=rhf DFTTYP=B3LYP RUNTYP=optimize mult=1 MAXIT=50 nzvar=27 $END  
 INPUT CARD> $ZMAT dlc=.t. auto=.t. nonvdw(1)=1,11,2,10 ifzmat(1)=1,2,10, 1,1,11            
 INPUT CARD> fvalue(1)=1.4, 1.9 $end                                                        
 INPUT CARD> $SYSTEM TIMLIM=5000 MEMORY=2000000 $END                                        
 INPUT CARD> $BASIS  GBASIS=N31 NGAUSS=6 ndfunc=1 npfunc=1                                  
 INPUT CARD> diffsp=.f. diffs=.f. $END                                                      
 INPUT CARD> $statpt nstep=500 HSSEND=.f. $end                                              
 INPUT CARD> $force nvib=2 rdhess=.f.  $end                                                 
 INPUT CARD> $scf DIIS=.T. SOSCF=.F. $end                                                   
 INPUT CARD> $DATA                                                                          
 INPUT CARD>  nedoTS CH3-CHF-CH3                                                            
 INPUT CARD> C1                                                                             
 INPUT CARD> C  6       -0.793970186      0.213788035      0.185485269                      
 INPUT CARD> C  6       -0.840452269      1.553080258     -0.196475016                      
 INPUT CARD> C  6        0.422762709     -0.676928693      0.070310136                      
 INPUT CARD> H  1       -1.695428359     -0.249364138      0.582120596                      
 INPUT CARD> H  1       -1.740028959      2.155635462     -0.078517584                      
 INPUT CARD> H  1        0.014031846      2.054001531     -0.654988861                      
 INPUT CARD> H  1        0.232753210     -1.553786123     -0.564950859                      
 INPUT CARD> H  1        1.275141432     -0.138025500     -0.355742365                      
 INPUT CARD> H  1        0.725431825     -1.068816972      1.047974869                      
 INPUT CARD> H  1       -0.169374794      2.080924402      1.612125431                      
 INPUT CARD> F  9       -0.145954025      1.086799718      1.864153089                      
 INPUT CARD> $END                                                                           
 INPUT CARD>                                                                                
    2000000 WORDS OF MEMORY AVAILABLE

     BASIS OPTIONS
     -------------
     GBASIS=N31          IGAUSS=       6      POLAR=POPN31  
     NDFUNC=       1     NFFUNC=       0     DIFFSP=       F
     NPFUNC=       1      DIFFS=       F     BASNAM=        


     RUN TITLE
     ---------
   nedoTS CH3-CHF-CH3                                                            

 THE POINT GROUP OF THE MOLECULE IS C1      
 THE ORDER OF THE PRINCIPAL AXIS IS     0

 ATOM      ATOMIC                      COORDINATES (BOHR)
           CHARGE         X                   Y                   Z
 C           6.0    -1.5003860940        0.4040008056        0.3505163332
 C           6.0    -1.5882244942        2.9348961246       -0.3712839437
 C           6.0     0.7989056778       -1.2792097430        0.1328668912
 H           1.0    -3.2038950303       -0.4712298920        1.1000484182
 H           1.0    -3.2881779432        4.0735603526       -0.1483767190
 H           1.0     0.0265163440        3.8815000720       -1.2377494723
 H           1.0     0.4398397897       -2.9362300160       -1.0676023200
 H           1.0     2.4096679021       -0.2608303743       -0.6722555921
 H           1.0     1.3708673720       -2.0197712081        1.9803853444
 H           1.0    -0.3200719499        3.9323769209        3.0464753224
 F           9.0    -0.2758131141        2.0537536706        3.5227385374

          INTERNUCLEAR DISTANCES (ANGS.)
          ------------------------------

                1 C          2 C          3 C          4 H          5 H     

   1 C       0.0000000    1.3934697 *  1.5123097 *  1.0883273 *  2.1761195 *
   2 C       1.3934697 *  0.0000000    2.5767860 *  2.1414950 *  1.0891395 *
   3 C       1.5123097 *  2.5767860 *  0.0000000    2.2206969 *  3.5669647  
   4 H       1.0883273 *  2.1414950 *  2.2206969 *  0.0000000    2.4944849 *
   5 H       2.1761195 *  1.0891395 *  3.5669647    2.4944849 *  0.0000000  
   6 H       2.1784512 *  1.0914670 *  2.8550130 *  3.1238098    1.8491560 *
   7 H       2.1775293 *  3.3075917    1.0993358 *  2.5952213 *  4.2294557  
   8 H       2.1674693 *  2.7131055 *  1.0947543 *  3.1170929    3.7985506  
   9 H       2.1673824 *  3.2977255    1.0959075 *  2.5979005 *  4.2124311  
  10 H       2.4313823 *  2.0000000 *  3.2145878    2.9698475 *  2.3088547 *
  11 F       2.0000000 *  2.2239455 *  2.5791567 *  2.4145003 *  2.7308340 *

                6 H          7 H          8 H          9 H         10 H     

   1 C       2.1784512 *  2.1775293 *  2.1674693 *  2.1673824 *  2.4313823 *
   2 C       1.0914670 *  3.3075917    2.7131055 *  3.2977255    2.0000000 *
   3 C       2.8550130 *  1.0993358 *  1.0947543 *  1.0959075 *  3.2145878  
   4 H       3.1238098    2.5952213 *  3.1170929    2.5979005 *  2.9698475 *
   5 H       1.8491560 *  4.2294557    3.7985506    4.2124311    2.3088547 *
   6 H       0.0000000    3.6155328    2.5465522 *  3.6274193    2.2746802 *
   7 H       3.6155328    0.0000000    1.7705139 *  1.7548381 *  4.2558770  
   8 H       2.5465522 *  1.7705139 *  0.0000000    1.7717154 *  3.2989194  
   9 H       3.6274193    1.7548381 *  1.7717154 *  0.0000000    3.3226218  
  10 H       2.2746802 *  4.2558770    3.2989194    3.3226218    0.0000000  
  11 F       2.7031742 *  3.6078607    2.9064833 *  2.4641720 *  1.0258413 *

               11 F     

   1 C       2.0000000 *
   2 C       2.2239455 *
   3 C       2.5791567 *
   4 H       2.4145003 *
   5 H       2.7308340 *
   6 H       2.7031742 *
   7 H       3.6078607  
   8 H       2.9064833 *
   9 H       2.4641720 *
  10 H       1.0258413 *
  11 F       0.0000000  

  * ... LESS THAN  3.000


     ATOMIC BASIS SET
     ----------------
 THE CONTRACTED PRIMITIVE FUNCTIONS HAVE BEEN UNNORMALIZED
 THE CONTRACTED BASIS FUNCTIONS ARE NOW NORMALIZED TO UNITY

  SHELL TYPE  PRIMITIVE        EXPONENT          CONTRACTION COEFFICIENT(S)

 C         

      1   S       1          3047.5248800    0.001834737132
      1   S       2           457.3695180    0.014037322813
      1   S       3           103.9486850    0.068842622264
      1   S       4            29.2101553    0.232184443216
      1   S       5             9.2866630    0.467941348435
      1   S       6             3.1639270    0.362311985337

      2   L       7             7.8682723   -0.119332419775    0.068999066591
      2   L       8             1.8812885   -0.160854151696    0.316423960957
      2   L       9             0.5442493    1.143456437840    0.744308290898

      3   L      10             0.1687145    1.000000000000    1.000000000000

      4   D      11             0.8000000    1.000000000000

 C         

      5   S      12          3047.5248800    0.001834737132
      5   S      13           457.3695180    0.014037322813
      5   S      14           103.9486850    0.068842622264
      5   S      15            29.2101553    0.232184443216
      5   S      16             9.2866630    0.467941348435
      5   S      17             3.1639270    0.362311985337

      6   L      18             7.8682723   -0.119332419775    0.068999066591
      6   L      19             1.8812885   -0.160854151696    0.316423960957
      6   L      20             0.5442493    1.143456437840    0.744308290898

      7   L      21             0.1687145    1.000000000000    1.000000000000

      8   D      22             0.8000000    1.000000000000

 C         

      9   S      23          3047.5248800    0.001834737132
      9   S      24           457.3695180    0.014037322813
      9   S      25           103.9486850    0.068842622264
      9   S      26            29.2101553    0.232184443216
      9   S      27             9.2866630    0.467941348435
      9   S      28             3.1639270    0.362311985337

     10   L      29             7.8682723   -0.119332419775    0.068999066591
     10   L      30             1.8812885   -0.160854151696    0.316423960957
     10   L      31             0.5442493    1.143456437840    0.744308290898

     11   L      32             0.1687145    1.000000000000    1.000000000000

     12   D      33             0.8000000    1.000000000000

 H         

     13   S      34            18.7311370    0.033494604338
     13   S      35             2.8253944    0.234726953484
     13   S      36             0.6401217    0.813757326146

     14   S      37             0.1612778    1.000000000000

     15   P      38             1.1000000    1.000000000000

 H         

     16   S      39            18.7311370    0.033494604338
     16   S      40             2.8253944    0.234726953484
     16   S      41             0.6401217    0.813757326146

     17   S      42             0.1612778    1.000000000000

     18   P      43             1.1000000    1.000000000000

 H         

     19   S      44            18.7311370    0.033494604338
     19   S      45             2.8253944    0.234726953484
     19   S      46             0.6401217    0.813757326146

     20   S      47             0.1612778    1.000000000000

     21   P      48             1.1000000    1.000000000000

 H         

     22   S      49            18.7311370    0.033494604338
     22   S      50             2.8253944    0.234726953484
     22   S      51             0.6401217    0.813757326146

     23   S      52             0.1612778    1.000000000000

     24   P      53             1.1000000    1.000000000000

 H         

     25   S      54            18.7311370    0.033494604338
     25   S      55             2.8253944    0.234726953484
     25   S      56             0.6401217    0.813757326146

     26   S      57             0.1612778    1.000000000000

     27   P      58             1.1000000    1.000000000000

 H         

     28   S      59            18.7311370    0.033494604338
     28   S      60             2.8253944    0.234726953484
     28   S      61             0.6401217    0.813757326146

     29   S      62             0.1612778    1.000000000000

     30   P      63             1.1000000    1.000000000000

 H         

     31   S      64            18.7311370    0.033494604338
     31   S      65             2.8253944    0.234726953484
     31   S      66             0.6401217    0.813757326146

     32   S      67             0.1612778    1.000000000000

     33   P      68             1.1000000    1.000000000000

 F         

     34   S      69          7001.7130900    0.001819616901
     34   S      70          1051.3660900    0.013916079607
     34   S      71           239.2856900    0.068405324535
     34   S      72            67.3974453    0.233185760119
     34   S      73            21.5199573    0.471267439240
     34   S      74             7.4031013    0.356618546182

     35   L      75            20.8479528   -0.108506975109    0.071628724237
     35   L      76             4.8083083   -0.146451658147    0.345912102697
     35   L      77             1.3440699    1.128688581135    0.722469956367

     36   L      78             0.3581514    1.000000000000    1.000000000000

     37   D      79             0.8000000    1.000000000000

 TOTAL NUMBER OF BASIS SET SHELLS             =   37
 NUMBER OF CARTESIAN GAUSSIAN BASIS FUNCTIONS =   95
 NUMBER OF ELECTRONS                          =   34
 CHARGE OF MOLECULE                           =    0
 SPIN MULTIPLICITY                            =    1
 NUMBER OF OCCUPIED ORBITALS (ALPHA)          =   17
 NUMBER OF OCCUPIED ORBITALS (BETA )          =   17
 TOTAL NUMBER OF ATOMS                        =   11
 THE NUCLEAR REPULSION ENERGY IS      127.6284727901

     $NEO OPTIONS
     ------------
     NUNIQN=       0     BASNUC=DZSNB        NEOSCF=NONE    
     NEOCI =NONE         NUMULT=       2     NUCST =       1
     NAUXNB=       0     VNUCEX=       F     NUCOPT=       F
     NTAUXB=       0     NEOHSS=       F     HSSINI=READH   
     HSSUPD=POWELLUP     DIRNUC=       F     SYMNUC=       F
     QMTOLN= 0.0E+00     USRDEX=       F
     POSNEO=       F     POSPRP=       F
     NEONCI=       F     LOCORB=       0

     LEBEDEV GRID-BASED DFT OPTIONS
     ------------------------------
     DFTTYP=B3LYP   
     NRAD  =      96     NLEB  =     302
     NRAD0 =      24     NLEB0 =     110
     SWOFF =    5.00E-03 (PURE SCF -> DFT)
     SWITCH=    3.00E-04 (COARSE -> TIGHT GRID)
     THRESH=    0.00E+00 GTHRE=    1.00E+00

 GRIMME'S EMPIRICAL DISPERSION CORRECTION= F

     $CONTRL OPTIONS
     ---------------
 SCFTYP=RHF          RUNTYP=OPTIMIZE     EXETYP=RUN     
 MPLEVL=       0     CITYP =NONE         CCTYP =NONE         VBTYP =NONE    
 DFTTYP=B3LYP        TDDFT =NONE    
 MULT  =       1     ICHARG=       0     NZVAR =      27     COORD =UNIQUE  
 PP    =NONE         RELWFN=NONE         LOCAL =NONE         NUMGRD=       F
 ISPHER=      -1     NOSYM =       0     MAXIT =      50     UNITS =ANGS    
 PLTORB=       F     MOLPLT=       F     AIMPAC=       F     FRIEND=        
 NPRINT=       7     IREST =       0     GEOM  =INPUT   
 NORMF =       0     NORMP =       0     ITOL  =      20     ICUT  =       9
 INTTYP=BEST         GRDTYP=BEST         QMTTOL= 1.0E-06

     $SYSTEM OPTIONS
     ---------------
  REPLICATED MEMORY=     2000000 WORDS (ON EVERY NODE).
 DISTRIBUTED MEMDDI=           0 MILLION WORDS IN AGGREGATE,
 MEMDDI DISTRIBUTED OVER   4 PROCESSORS IS           0 WORDS/PROCESSOR.
 TOTAL MEMORY REQUESTED ON EACH PROCESSOR=     2000000 WORDS.
 TIMLIM=        5000.00 MINUTES, OR       3.5 DAYS.
 PARALL= T  BALTYP=  DLB     KDIAG=    0  COREFL= F
 MXSEQ2=     300 MXSEQ3=     150

          ----------------
          PROPERTIES INPUT
          ----------------

     MOMENTS            FIELD           POTENTIAL          DENSITY
 IEMOM =       1   IEFLD =       0   IEPOT =       0   IEDEN =       0
 WHERE =COMASS     WHERE =NUCLEI     WHERE =NUCLEI     WHERE =NUCLEI  
 OUTPUT=BOTH       OUTPUT=BOTH       OUTPUT=BOTH       OUTPUT=BOTH    
 IEMINT=       0   IEFINT=       0                     IEDINT=       0
                                                       MORB  =       0
          EXTRAPOLATION IN EFFECT
          DIIS IN EFFECT
 ORBITAL PRINTING OPTION: NPREO=     1    95     2     1

     -------------------------------
     INTEGRAL TRANSFORMATION OPTIONS
     -------------------------------
     NWORD  =            0
     CUTOFF = 1.0E-09     MPTRAN =       0
     DIRTRF =       F     AOINTS =DUP     

          ----------------------
          INTEGRAL INPUT OPTIONS
          ----------------------
 NOPK  =       1 NORDER=       0 SCHWRZ=       T
 
 
 -----------------------------------------------
  STATISTICS ON AUTOMATIC COORDINATE GENERATION 
 -----------------------------------------------
  NUMBER OF USER SPECIFIED BONDS                              2
  NUMBER OF BONDS                                            10
  NUMBER OF ANGLES                                           18
  NUMBER OF TORSIONS                                         18
  NUMBER OF EXTRA COORD.                                      0
  NUMBER OF EXTRA COORD. FOR CONSTRAINTS                      0
  NUMBER OF CONSTRAINED COORD.                                2
 
  TOTAL NUMBER OF PRIMITIVES                                 46
 -----------------------------------------------

   --- ENCODED Z MATRIX ---
 COORD  TYPE   I   J   K   L   M   N
    1      1    1  11
    2      1    2  10
    3      1    1   4
    4      1    1   2
    5      1    1   3
    6      1    2   6
    7      1    2   5
    8      1    3   8
    9      1    3   7
   10      1    3   9
   11      2    1   2   5
   12      2    1   3   9
   13      2    1   3   8
   14      2    1   2  10
   15      2    1   3   7
   16      2    1   2   6
   17      2    2   1   3
   18      2    2   1   4
   19      2    2   1  11
   20      2    3   1  11
   21      2    3   1   4
   22      2    4   1  11
   23      2    5   2   6
   24      2    5   2  10
   25      2    6   2  10
   26      2    7   3   9
   27      2    7   3   8
   28      2    8   3   9
   29      3    2   1   3   7
   30      3    2   1   3   9
   31      3    2   1   3   8
   32      3    3   1   2   5
   33      3    3   1   2  10
   34      3    3   1   2   6
   35      3    4   1   3   7
   36      3    4   1   2  10
   37      3    4   1   3   9
   38      3    4   1   2   5
   39      3    4   1   2   6
   40      3    4   1   3   8
   41      3    5   2   1  11
   42      3    6   2   1  11
   43      3    7   3   1  11
   44      3    8   3   1  11
   45      3    9   3   1  11
   46      3   10   2   1  11

          INDEP./SYM. INTERNAL COORDINATES
          --------------------------------
 CRD  1=   1.0000 (  1)
 CRD  2=   1.0000 (  2)
 CRD  3=  -0.2986 (  5) -0.1161 ( 11) -0.3370 ( 12) -0.1374 ( 14)  0.1498 ( 15)
           0.1463 ( 16)  0.3900 ( 19) -0.4698 ( 20)  0.1316 ( 24)  0.1283 ( 28)
           0.1087 ( 31)  0.1524 ( 32)  0.2199 ( 33)  0.1619 ( 34)  0.1537 ( 36)
           0.1730 ( 40) -0.1666 ( 41) -0.1571 ( 42) -0.1383 ( 43) -0.1312 ( 45)
 CRD  4=   0.1179 (  3)  0.3870 (  4)  0.5254 (  5)  0.1637 (  7)  0.2502 ( 11)
           0.1424 ( 12) -0.1961 ( 14)  0.3865 ( 15) -0.1028 ( 18)  0.1071 ( 19)
          -0.1254 ( 20)  0.1588 ( 21) -0.2149 ( 23) -0.2422 ( 26) -0.1479 ( 27)
 CRD  5=  -0.2667 ( 11) -0.2508 ( 12) -0.1622 ( 13)  0.2121 ( 14)  0.4643 ( 15)
           0.1853 ( 16) -0.2387 ( 19)  0.1739 ( 20) -0.2900 ( 25) -0.1199 ( 27)
           0.1551 ( 28)  0.2494 ( 33)  0.1762 ( 36)  0.1296 ( 41)  0.1003 ( 43)
           0.1559 ( 44)  0.3053 ( 46)
 CRD  6=  -0.1100 ( 10)  0.3441 ( 11) -0.4657 ( 12)  0.1557 ( 13)  0.2436 ( 15)
          -0.3186 ( 16)  0.2206 ( 18) -0.1552 ( 19) -0.2574 ( 21)  0.1263 ( 22)
          -0.2029 ( 24) -0.1583 ( 27)  0.1398 ( 28) -0.1550 ( 29) -0.1146 ( 30)
          -0.1055 ( 33) -0.1794 ( 36)  0.1050 ( 44) -0.2098 ( 46)
 CRD  7=  -0.4625 (  4)  0.1857 (  5) -0.1108 (  6)  0.1149 ( 14)  0.1340 ( 15)
          -0.1684 ( 16) -0.4400 ( 18) -0.1311 ( 20)  0.4175 ( 21)  0.2560 ( 23)
          -0.1824 ( 24) -0.1061 ( 27) -0.1384 ( 33) -0.1363 ( 36) -0.1300 ( 41)
          -0.1067 ( 42) -0.2748 ( 46)
 CRD  8=   0.1077 (  4) -0.2205 (  5)  0.1266 (  6) -0.1856 (  8)  0.2357 ( 12)
          -0.5949 ( 13)  0.1642 ( 15)  0.1384 ( 16)  0.1076 ( 17)  0.1402 ( 22)
          -0.1471 ( 24)  0.1003 ( 25) -0.1677 ( 26)  0.2063 ( 27)  0.1800 ( 28)
          -0.1504 ( 33) -0.1658 ( 36) -0.1157 ( 41) -0.1460 ( 42)  0.1085 ( 43)
          -0.2768 ( 46)
 CRD  9=  -0.1280 (  3) -0.1022 (  4) -0.3110 (  6)  0.2796 (  7) -0.1013 (  9)
           0.1556 ( 10)  0.2295 ( 11)  0.2294 ( 12) -0.1114 ( 13) -0.1111 ( 15)
          -0.3120 ( 16)  0.1541 ( 17) -0.1014 ( 20) -0.1096 ( 21)  0.1884 ( 22)
          -0.1782 ( 25)  0.1439 ( 27)  0.1400 ( 32)  0.2855 ( 33)  0.1174 ( 34)
           0.2351 ( 36) -0.1067 ( 42)  0.2024 ( 43)  0.2315 ( 44)  0.2058 ( 45)
 CRD 10=  -0.5288 (  3) -0.1452 (  4) -0.1219 (  6)  0.1310 (  7)  0.1792 (  9)
           0.1182 ( 11) -0.1927 ( 13)  0.1866 ( 15) -0.2022 ( 16)  0.1826 ( 17)
           0.1552 ( 19)  0.1674 ( 20) -0.1188 ( 21) -0.2138 ( 22)  0.1746 ( 28)
           0.1680 ( 29)  0.1823 ( 30)  0.1371 ( 31) -0.1713 ( 32) -0.1268 ( 33)
           0.1061 ( 41)  0.2102 ( 42) -0.1267 ( 43) -0.1576 ( 44) -0.1123 ( 45)
           0.1506 ( 46)
 CRD 11=   0.1099 (  5) -0.1854 (  6)  0.4703 (  8)  0.4259 (  9)  0.4622 ( 10)
           0.1019 ( 11) -0.1859 ( 12) -0.1686 ( 13) -0.2096 ( 15) -0.1158 ( 18)
           0.1134 ( 21) -0.1487 ( 23)  0.2181 ( 26)  0.2087 ( 27)  0.1800 ( 28)
 CRD 12=   0.1089 (  4)  0.5563 (  6)  0.5336 (  7)  0.1246 (  8)  0.1119 (  9)
           0.1454 ( 10) -0.2392 ( 11) -0.2197 ( 16)  0.4594 ( 23)
 CRD 13=  -0.3545 (  3) -0.1189 (  8) -0.2436 (  9) -0.1030 ( 22) -0.1717 ( 25)
          -0.3377 ( 29) -0.3397 ( 30) -0.2994 ( 31)  0.1417 ( 32)  0.1438 ( 33)
          -0.1509 ( 35) -0.1529 ( 37) -0.2003 ( 39) -0.1126 ( 40) -0.2765 ( 43)
          -0.2382 ( 44) -0.2785 ( 45)
 CRD 14=  -0.1011 (  7)  0.1412 ( 19) -0.2788 ( 24) -0.2296 ( 25)  0.1464 ( 29)
           0.1537 ( 30)  0.1058 ( 31)  0.3124 ( 32) -0.3835 ( 34)  0.3873 ( 38)
          -0.3086 ( 39)  0.3784 ( 41) -0.3175 ( 42)
 CRD 15=   0.1302 (  3) -0.1005 (  6)  0.1053 (  7)  0.4837 (  9) -0.5176 ( 10)
           0.1678 ( 24) -0.1852 ( 25)  0.1828 ( 27) -0.1677 ( 28)  0.1291 ( 31)
          -0.1802 ( 32) -0.2408 ( 34) -0.1721 ( 35)  0.1069 ( 36) -0.1652 ( 37)
          -0.1315 ( 39) -0.1764 ( 41) -0.2371 ( 42) -0.1044 ( 43)
 CRD 16=  -0.6445 (  8)  0.3316 (  9)  0.3020 ( 10)  0.3381 ( 26) -0.1605 ( 27)
          -0.1729 ( 28)  0.1823 ( 29) -0.1778 ( 30)  0.1785 ( 35) -0.1816 ( 37)
           0.1853 ( 43) -0.1748 ( 45)
 CRD 17=   0.1658 (  3) -0.1161 (  6)  0.1144 (  7) -0.2513 (  9)  0.2558 ( 10)
           0.2327 ( 24) -0.1858 ( 25) -0.2443 ( 27)  0.2536 ( 28)  0.1258 ( 29)
           0.1215 ( 30) -0.1437 ( 31) -0.3108 ( 32) -0.3024 ( 34)  0.1292 ( 36)
          -0.1217 ( 38) -0.1132 ( 39) -0.3285 ( 40) -0.2518 ( 41) -0.2433 ( 42)
          -0.2177 ( 44)
 CRD 18=  -0.1239 (  3)  0.1555 (  4)  0.1397 (  7) -0.1469 ( 18)  0.1949 ( 21)
          -0.2072 ( 22) -0.1034 ( 23) -0.1130 ( 25)  0.3371 ( 35) -0.2755 ( 36)
           0.3224 ( 37) -0.3635 ( 38) -0.3874 ( 39)  0.3062 ( 40) -0.1008 ( 41)
          -0.1247 ( 42)  0.1381 ( 43)  0.1072 ( 44)  0.1234 ( 45)
 CRD 19=  -0.1326 (  3) -0.1294 (  4)  0.1388 (  5) -0.3952 (  7)  0.1260 (  8)
           0.1909 (  9)  0.2553 ( 10) -0.1512 ( 11)  0.1810 ( 12)  0.1268 ( 13)
           0.1544 ( 15)  0.3315 ( 18) -0.1335 ( 20) -0.3003 ( 21)  0.2404 ( 23)
           0.1228 ( 24) -0.2088 ( 26) -0.1164 ( 27) -0.1723 ( 28)  0.1273 ( 37)
          -0.2206 ( 38) -0.1449 ( 39)  0.1351 ( 40) -0.1683 ( 41)
 CRD 20=  -0.5500 (  3)  0.4661 (  6)  0.2260 (  8)  0.1530 ( 11)  0.1586 ( 13)
           0.1296 ( 16) -0.1152 ( 17)  0.1011 ( 21)  0.1866 ( 22) -0.2818 ( 23)
          -0.1039 ( 25) -0.1545 ( 27) -0.1232 ( 28)  0.1612 ( 36) -0.1223 ( 37)
           0.1014 ( 38) -0.1253 ( 42)  0.1564 ( 43)  0.1114 ( 44)
 CRD 21=  -0.1189 (  3)  0.1771 (  4)  0.4193 (  5)  0.2289 (  6) -0.4821 (  7)
          -0.1657 (  8) -0.2107 (  9) -0.1844 ( 10) -0.2022 ( 12) -0.1737 ( 13)
          -0.1855 ( 15) -0.2516 ( 16)  0.1741 ( 23)  0.1216 ( 24)  0.2098 ( 26)
           0.2065 ( 27)  0.1877 ( 28)
 CRD 22=   0.2733 (  3) -0.5365 (  4)  0.4115 (  6) -0.2217 (  8)  0.3127 ( 11)
           0.1021 ( 14)  0.1358 ( 17) -0.1056 ( 21) -0.3145 ( 23) -0.1167 ( 26)
           0.1216 ( 27) -0.1386 ( 29)  0.1311 ( 37) -0.1775 ( 43)
 CRD 23=   0.1994 (  3)  0.2615 (  4) -0.5010 (  5)  0.1816 (  6) -0.3303 (  7)
           0.1770 (  9)  0.2077 ( 11)  0.1185 ( 12)  0.1146 ( 13) -0.3140 ( 16)
           0.1840 ( 17) -0.3399 ( 18)  0.1560 ( 21)  0.1062 ( 23) -0.1424 ( 26)
          -0.1365 ( 27)  0.1069 ( 46)
 CRD 24=  -0.3406 (  9)  0.3469 ( 10) -0.1385 ( 12)  0.1949 ( 15)  0.1496 ( 20)
           0.2292 ( 27) -0.2861 ( 28)  0.3945 ( 31) -0.1751 ( 32) -0.1573 ( 33)
          -0.1798 ( 34) -0.1718 ( 35) -0.2098 ( 37)  0.2546 ( 40) -0.1302 ( 43)
           0.2961 ( 44) -0.1683 ( 45)
 CRD 25=   0.1755 (  3) -0.1660 (  4)  0.3699 (  8) -0.1666 (  9) -0.2058 ( 10)
           0.1394 ( 12) -0.2308 ( 13)  0.1016 ( 15)  0.2291 ( 17) -0.2109 ( 21)
           0.2740 ( 26) -0.1525 ( 27) -0.1251 ( 28)  0.2365 ( 29) -0.2733 ( 30)
           0.3015 ( 35) -0.2083 ( 37)  0.2069 ( 43) -0.3029 ( 45)
 CRD 26=   0.3117 (  4)  0.1279 (  5)  0.6659 ( 14)  0.2589 ( 17) -0.1029 ( 18)
           0.1990 ( 19) -0.1573 ( 21) -0.2908 ( 24) -0.2600 ( 25)  0.1249 ( 30)
           0.1005 ( 31) -0.1277 ( 32)  0.1386 ( 39) -0.1269 ( 41)
 CRD 27=   0.1656 (  5) -0.2057 ( 11)  0.2446 ( 13) -0.2686 ( 14)  0.2648 ( 16)
           0.6179 ( 17) -0.3294 ( 18) -0.1489 ( 19)  0.1380 ( 20) -0.2877 ( 21)
           0.1274 ( 25) -0.1070 ( 29)  0.1061 ( 45)

 THE DETERMINANT OF THE G MATRIX IS 10**(   -10)


                     --------------------
                     INTERNAL COORDINATES
                     --------------------

                 - - ATOMS - -         COORDINATE      COORDINATE
 NO.   TYPE    I  J  K  L  M  N        (BOHR,RAD)       (ANG,DEG)
 ----------------------------------------------------------------
   1 STRETCH   1 11                     3.7794520       2.0000000
   2 STRETCH   2 10                     3.7794520       2.0000000
   3 STRETCH   1  4                     2.0566404       1.0883273
   4 STRETCH   1  2                     2.6332760       1.3934697
   5 STRETCH   1  3                     2.8578509       1.5123097
   6 STRETCH   2  6                     2.0625735       1.0914670
   7 STRETCH   2  5                     2.0581753       1.0891395
   8 STRETCH   3  8                     2.0687856       1.0947543
   9 STRETCH   3  7                     2.0774433       1.0993358
  10 STRETCH   3  9                     2.0709650       1.0959075
  11 BEND      1  2  5                  2.1289188     121.9780643
  12 BEND      1  3  9                  1.9442949     111.3998936
  13 BEND      1  3  8                  1.9456498     111.4775223
  14 BEND      1  2 10                  1.5653893      89.6901985
  15 BEND      1  3  7                  1.9549050     112.0078081
  16 BEND      1  2  6                  2.1295558     122.0145602
  17 BEND      2  1  3                  2.1797877     124.8926375
  18 BEND      2  1  4                  2.0729164     118.7693635
  19 BEND      2  1 11                  1.3911728      79.7083324
  20 BEND      3  1 11                  1.6311660      93.4589262
  21 BEND      3  1  4                  2.0303150     116.3284832
  22 BEND      4  1 11                  1.7195896      98.5252247
  23 BEND      5  2  6                  2.0244026     115.9897242
  24 BEND      5  2 10                  1.6039903      91.9018770
  25 BEND      6  2 10                  1.5668727      89.7751911
  26 BEND      7  3  9                  1.8525302     106.1421606
  27 BEND      7  3  8                  1.8779253     107.5971967
  28 BEND      8  3  9                  1.8840746     107.9495253
  29 TORSION   2  1  3  7              -2.1063736    -120.6863183
  30 TORSION   2  1  3  9               2.1048191     120.5972527
  31 TORSION   2  1  3  8              -0.0010364      -0.0593807
  32 TORSION   3  1  2  5              -3.1254485    -179.0750098
  33 TORSION   3  1  2 10              -1.5188947     -87.0262586
  34 TORSION   3  1  2  6               0.0438934       2.5149046
  35 TORSION   4  1  3  7               1.0153177      58.1734200
  36 TORSION   4  1  2 10               1.6430466      94.1396354
  37 TORSION   4  1  3  9              -1.0566748     -60.5430089
  38 TORSION   4  1  2  5               0.0364928       2.0908842
  39 TORSION   4  1  2  6              -3.0773506    -176.3192014
  40 TORSION   4  1  3  8               3.1206549     178.8003576
  41 TORSION   5  2  1 11              -1.6065538     -92.0487512
  42 TORSION   6  2  1 11               1.5627881      89.5411632
  43 TORSION   7  3  1 11               2.7829984     159.4540599
  44 TORSION   8  3  1 11              -1.3948497     -79.9190025
  45 TORSION   9  3  1 11               0.7110058      40.7376309
  46 TORSION  10  2  1 11               0.0000000       0.0000000

     ------------------------------------------
     THE POINT GROUP IS C1 , NAXIS= 0, ORDER= 1
     ------------------------------------------

     DIMENSIONS OF THE SYMMETRY SUBSPACES ARE
 A   =   95

 ..... DONE SETTING UP THE RUN .....
 CPU     0: STEP CPU TIME=     0.02 TOTAL CPU TIME=        0.0 (    0.0 MIN)
 TOTAL WALL CLOCK TIME=        0.0 SECONDS, CPU UTILIZATION IS 100.83%


          -----------------------------
          STATIONARY POINT LOCATION RUN
          -----------------------------


           ** GEOMETRY CONSTRAINTS ARE BEING APPLIED. **

          TRANSFORMING DISPLACEMENT FROM INTERNALS TO CARTESIANS
          THE ROOT MEAN SQUARE ERROR IN ITERATION   1 IS   0.00315013
          THE ROOT MEAN SQUARE ERROR IN ITERATION   2 IS   0.00001754
          THE ROOT MEAN SQUARE ERROR IN ITERATION   3 IS   0.00000000
 WARNING! THE RADIUS IN CARTESIANS IS    1.07703
 OBTAINING INITIAL HESSIAN, HESS=GUESS   
 DIAGONAL GUESS HESSIAN IN INTERNAL COORDS IS
     1  0.1236     2  0.1896     3  0.3475     4  0.4788     5  0.3800
     6  0.3454     7  0.3469     8  0.3432     9  0.3401    10  0.3424
    11  0.2325    12  0.2248    13  0.2248    14  0.2142    15  0.2246
    16  0.2323    17  0.2597    18  0.2325    19  0.2143    20  0.2079
    21  0.2252    22  0.1890    23  0.2034    24  0.1889    25  0.1888
    26  0.2026    27  0.2027    28  0.2029    29  0.2500    30  0.2500
    31  0.2500    32  0.2500    33  0.2500    34  0.2500    35  0.2500
    36  0.2500    37  0.2500    38  0.2500    39  0.2500    40  0.2500
    41  0.2500    42  0.2500    43  0.2500    44  0.2500    45  0.2500
    46  0.2500
 TRANSFORMING HESSIAN TO SYMMETRY COORDINATES

          PARAMETERS CONTROLLING GEOMETRY SEARCH ARE
          METHOD =QA                  UPHESS =BFGS    
          NNEG   =         0          NFRZ   =         0
          NSTEP  =       500          IFOLOW =         1
          HESS   =GUESS               RESTAR =         F
          IHREP  =         0          HSSEND =         F
          NPRT   =         0          NPUN   =         0
          OPTTOL = 1.000E-04          RMIN   = 1.500E-03
          RMAX   = 1.000E-01          RLIM   = 7.000E-02
          DXMAX  = 3.000E-01          PURIFY =         F
          MOVIE  =         F          TRUPD  =         T
          TRMAX  = 5.000E-01          TRMIN  = 5.000E-02
          ITBMAT =         5          STPT   =         F
          STSTEP = 1.000E-02          PROJCT=          T

 BEGINNING GEOMETRY SEARCH POINT NSERCH=   0 ...

 COORDINATES OF ALL ATOMS ARE (ANGS)
   ATOM   CHARGE       X              Y              Z
 ------------------------------------------------------------
 C           6.0  -0.7856766820   0.2328144630   0.2231811757
 C           6.0  -0.8290564397   1.5731458299  -0.1554848056
 C           6.0   0.4258911563  -0.6632967602   0.0960254160
 H           1.0  -1.6859820983  -0.2270112953   0.6262528630
 H           1.0  -1.7248049815   2.1796179309  -0.0287919034
 H           1.0   0.0239424792   2.0710948826  -0.6199627446
 H           1.0   0.2265503436  -1.5378605754  -0.5395376946
 H           1.0   1.2772301682  -0.1274279415  -0.3358928266
 H           1.0   0.7347890984  -1.0587395045   1.0703048650
 H           1.0  -0.3471446212   1.9376603231   1.1074048109
 F           9.0  -0.1530487345   1.0557911048   1.8145614970


                     --------------------
                     INTERNAL COORDINATES
                     --------------------

                 - - ATOMS - -         COORDINATE      COORDINATE
 NO.   TYPE    I  J  K  L  M  N        (BOHR,RAD)       (ANG,DEG)
 ----------------------------------------------------------------
   1 STRETCH   1 11                     3.5904794       1.9000000
   2 STRETCH   2 10                     2.6456164       1.4000000
   3 STRETCH   1  4                     2.0566404       1.0883273
   4 STRETCH   1  2                     2.6332760       1.3934697
   5 STRETCH   1  3                     2.8578509       1.5123097
   6 STRETCH   2  6                     2.0625735       1.0914670
   7 STRETCH   2  5                     2.0581753       1.0891395
   8 STRETCH   3  8                     2.0687856       1.0947543
   9 STRETCH   3  7                     2.0774433       1.0993358
  10 STRETCH   3  9                     2.0709650       1.0959075
  11 BEND      1  2  5                  2.1289188     121.9780643
  12 BEND      1  3  9                  1.9442949     111.3998936
  13 BEND      1  3  8                  1.9456498     111.4775223
  14 BEND      1  2 10                  1.5653893      89.6901985
  15 BEND      1  3  7                  1.9549050     112.0078081
  16 BEND      1  2  6                  2.1295558     122.0145602
  17 BEND      2  1  3                  2.1797877     124.8926375
  18 BEND      2  1  4                  2.0729164     118.7693635
  19 BEND      2  1 11                  1.3911728      79.7083324
  20 BEND      3  1 11                  1.6311660      93.4589262
  21 BEND      3  1  4                  2.0303150     116.3284832
  22 BEND      4  1 11                  1.7195896      98.5252247
  23 BEND      5  2  6                  2.0244026     115.9897242
  24 BEND      5  2 10                  1.6039903      91.9018770
  25 BEND      6  2 10                  1.5668727      89.7751911
  26 BEND      7  3  9                  1.8525302     106.1421606
  27 BEND      7  3  8                  1.8779253     107.5971967
  28 BEND      8  3  9                  1.8840746     107.9495253
  29 TORSION   2  1  3  7              -2.1063736    -120.6863183
  30 TORSION   2  1  3  9               2.1048191     120.5972527
  31 TORSION   2  1  3  8              -0.0010364      -0.0593807
  32 TORSION   3  1  2  5              -3.1254485    -179.0750098
  33 TORSION   3  1  2 10              -1.5188947     -87.0262586
  34 TORSION   3  1  2  6               0.0438934       2.5149046
  35 TORSION   4  1  3  7               1.0153177      58.1734200
  36 TORSION   4  1  2 10               1.6430466      94.1396354
  37 TORSION   4  1  3  9              -1.0566748     -60.5430089
  38 TORSION   4  1  2  5               0.0364928       2.0908842
  39 TORSION   4  1  2  6              -3.0773506    -176.3192014
  40 TORSION   4  1  3  8               3.1206549     178.8003576
  41 TORSION   5  2  1 11              -1.6065538     -92.0487512
  42 TORSION   6  2  1 11               1.5627881      89.5411632
  43 TORSION   7  3  1 11               2.7829984     159.4540599
  44 TORSION   8  3  1 11              -1.3948497     -79.9190025
  45 TORSION   9  3  1 11               0.7110058      40.7376309
  46 TORSION  10  2  1 11               0.0000000       0.0000000

          ********************
          1 ELECTRON INTEGRALS
          ********************
 ...... END OF ONE-ELECTRON INTEGRALS ......
 CPU     0: STEP CPU TIME=     0.05 TOTAL CPU TIME=        0.1 (    0.0 MIN)
 TOTAL WALL CLOCK TIME=        0.1 SECONDS, CPU UTILIZATION IS 100.77%

          -------------
          GUESS OPTIONS
          -------------
          GUESS =HUCKEL            NORB  =       0          NORDER=       0
          MIX   =       F          PRTMO =       F          PUNMO =       F
          TOLZ  = 1.0E-08          TOLE  = 1.0E-05
          SYMDEN=       F          PURIFY=       F

 INITIAL GUESS ORBITALS GENERATED BY HUCKEL   ROUTINE.
 HUCKEL GUESS REQUIRES     76357 WORDS.

 SYMMETRIES FOR INITIAL GUESS ORBITALS FOLLOW.   BOTH SET(S).
    17 ORBITALS ARE OCCUPIED (    4 CORE ORBITALS).
     5=A        6=A        7=A        8=A        9=A       10=A       11=A   
    12=A       13=A       14=A       15=A       16=A       17=A       18=A   
    19=A       20=A       21=A       22=A       23=A       24=A       25=A   
    26=A       27=A   
 ...... END OF INITIAL ORBITAL SELECTION ......
 CPU     0: STEP CPU TIME=     0.04 TOTAL CPU TIME=        0.1 (    0.0 MIN)
 TOTAL WALL CLOCK TIME=        0.1 SECONDS, CPU UTILIZATION IS 100.70%

                    ----------------------
                    AO INTEGRAL TECHNOLOGY
                    ----------------------
     S,P,L SHELL ROTATED AXIS INTEGRALS, REPROGRAMMED BY
        KAZUYA ISHIMURA (IMS) AND JOSE SIERRA (SYNSTAR).
     S,P,D,L SHELL ROTATED AXIS INTEGRALS PROGRAMMED BY
        KAZUYA ISHIMURA (INSTITUTE FOR MOLECULAR SCIENCE).
     S,P,D,F,G SHELL TO TOTAL QUARTET ANGULAR MOMENTUM SUM 5,
        ERIC PROGRAM BY GRAHAM FLETCHER (ELORET AND NASA ADVANCED
        SUPERCOMPUTING DIVISION, AMES RESEARCH CENTER).
     S,P,D,F,G,L SHELL GENERAL RYS QUADRATURE PROGRAMMED BY
        MICHEL DUPUIS (PACIFIC NORTHWEST NATIONAL LABORATORY).

          --------------------
          2 ELECTRON INTEGRALS
          --------------------

 THE -PK- OPTION IS OFF, THE INTEGRALS ARE NOT IN SUPERMATRIX FORM.
 STORING   15000 INTEGRALS/RECORD ON DISK, USING 12 BYTES/INTEGRAL.
 TWO ELECTRON INTEGRAL EVALUATION REQUIRES   91099 WORDS OF MEMORY.
 SCHWARZ INEQUALITY OVERHEAD:      4554 INTEGRALS, T=        0.00
 II,JST,KST,LST =  1  1  1  1 NREC =         1 INTLOC =    1
 II,JST,KST,LST =  2  1  1  1 NREC =         1 INTLOC =    1
 II,JST,KST,LST =  3  1  1  1 NREC =         1 INTLOC =   32
 II,JST,KST,LST =  4  1  1  1 NREC =         1 INTLOC =  158
 II,JST,KST,LST =  5  1  1  1 NREC =         1 INTLOC =  227
 II,JST,KST,LST =  6  1  1  1 NREC =         1 INTLOC =  886
 II,JST,KST,LST =  7  1  1  1 NREC =         1 INTLOC = 3707
 II,JST,KST,LST =  8  1  1  1 NREC =         1 INTLOC =10907
 II,JST,KST,LST =  9  1  1  1 NREC =         3 INTLOC = 8531
 II,JST,KST,LST = 10  1  1  1 NREC =         3 INTLOC = 8531
 II,JST,KST,LST = 11  1  1  1 NREC =         5 INTLOC =12718
 II,JST,KST,LST = 12  1  1  1 NREC =         8 INTLOC = 7641
 II,JST,KST,LST = 13  1  1  1 NREC =        14 INTLOC = 3182
 II,JST,KST,LST = 14  1  1  1 NREC =        15 INTLOC = 4200
 II,JST,KST,LST = 15  1  1  1 NREC =        15 INTLOC =14019
 II,JST,KST,LST = 16  1  1  1 NREC =        20 INTLOC =10783
 II,JST,KST,LST = 17  1  1  1 NREC =        22 INTLOC = 1424
 II,JST,KST,LST = 18  1  1  1 NREC =        24 INTLOC = 4677
 II,JST,KST,LST = 19  1  1  1 NREC =        29 INTLOC =  491
 II,JST,KST,LST = 20  1  1  1 NREC =        30 INTLOC = 8311
 II,JST,KST,LST = 21  1  1  1 NREC =        32 INTLOC = 5458
 II,JST,KST,LST = 22  1  1  1 NREC =        37 INTLOC = 8928
 II,JST,KST,LST = 23  1  1  1 NREC =        39 INTLOC =10956
 II,JST,KST,LST = 24  1  1  1 NREC =        42 INTLOC = 5965
 II,JST,KST,LST = 25  1  1  1 NREC =        49 INTLOC = 5840
 II,JST,KST,LST = 26  1  1  1 NREC =        51 INTLOC = 9553
 II,JST,KST,LST = 27  1  1  1 NREC =        54 INTLOC = 9836
 II,JST,KST,LST = 28  1  1  1 NREC =        64 INTLOC = 4942
 II,JST,KST,LST = 29  1  1  1 NREC =        67 INTLOC = 1738
 II,JST,KST,LST = 30  1  1  1 NREC =        70 INTLOC = 5267
 II,JST,KST,LST = 31  1  1  1 NREC =        80 INTLOC = 9929
 II,JST,KST,LST = 32  1  1  1 NREC =        84 INTLOC =13793
 II,JST,KST,LST = 33  1  1  1 NREC =        84 INTLOC =13793
 II,JST,KST,LST = 34  1  1  1 NREC =        84 INTLOC =13793
 II,JST,KST,LST = 35  1  1  1 NREC =        88 INTLOC = 9706
 II,JST,KST,LST = 36  1  1  1 NREC =       113 INTLOC = 8111
 II,JST,KST,LST = 37  1  1  1 NREC =       132 INTLOC = 6526
 SCHWARZ INEQUALITY TEST SKIPPED       34703 INTEGRAL BLOCKS.
 TOTAL NUMBER OF NONZERO TWO-ELECTRON INTEGRALS =             8948801
        598 INTEGRAL RECORDS WERE STORED ON DISK FILE  8.
  ...... END OF TWO-ELECTRON INTEGRALS .....
 CPU     0: STEP CPU TIME=     0.18 TOTAL CPU TIME=        0.3 (    0.0 MIN)
 TOTAL WALL CLOCK TIME=        0.3 SECONDS, CPU UTILIZATION IS 100.11%

          --------------------------
             R-B3LYP SCF CALCULATION
          --------------------------

     NUCLEAR ENERGY =       130.2659877748
     MAXIT =   50     NPUNCH=    2
     EXTRAP=T  DAMP=F  SHIFT=F  RSTRCT=F  DIIS=T  DEM=F  SOSCF=F
         DENSITY MATRIX CONVERGENCE THRESHOLD=  1.00E-05
     COARSE -> FINE DFT GRID SWITCH THRESHOLD=  3.00E-04 (SWITCH IN $DFT)
                   HF -> DFT SWITCH THRESHOLD=  5.00E-03 (SWOFF IN $DFT)
     MEMORY REQUIRED FOR RHF ITERS=    477462 WORDS.

 DFT CODE IS SWITCHING FROM THE FINE GRID NRAD= 96,  NLEB=  302
                      TO THE COARSE GRID NRAD0= 24, NLEB0=  110

     EXCHANGE FUNCTIONAL   =B88&HFX   
     CORRELATION FUNCTIONAL=LYP88&VWN5
     DFT THRESHOLD         =.125E-07
     GRID CHANGE THRESHOLD =.300E-03
 FOR AN EULER-MACLAURIN QUADRATURE USING  96 RADIAL POINTS:
 SMALLEST GAUSSIAN PRIMITIVE EXPONENT=        0.1612777588 OF TYPE -S-
 ON ATOM NUMBER   4 HAS RADIAL NORMALIZATION=  1.000000
  LARGEST GAUSSIAN PRIMITIVE EXPONENT=     7001.7130900000 OF TYPE -S-
 ON ATOM NUMBER  11 HAS RADIAL NORMALIZATION=  1.000000
 DFT IS SWITCHED OFF, PERFORMING PURE SCF UNTIL SWOFF THRESHOLD IS REACHED.

 ITER EX DEM     TOTAL ENERGY        E CHANGE  DENSITY CHANGE    DIIS ERROR
   1  0  0     -216.4853246678  -216.4853246678   0.156125501   0.544559147
          * * *   INITIATING DIIS PROCEDURE   * * *
   2  1  0     -216.9266480124    -0.4413233446   0.096573452   0.047998202
   3  2  0     -216.9573824704    -0.0307344579   0.041504699   0.048359796
   4  3  0     -216.9689733716    -0.0115909012   0.011187960   0.006110325
   5  4  0     -216.9695855714    -0.0006121998   0.003218503   0.002732407
 CONVERGED TO SWOFF, SO DFT CALCULATION IS NOW SWITCHED ON.
          * * *   INITIATING DIIS PROCEDURE   * * *
   6  5  0     -218.1014505438    -1.1318649724   0.111849827   0.110127861
   7  6  0     -218.1190861961    -0.0176356523   0.062914264   0.019902868
   8  7  0     -218.1156757327     0.0034104633   0.037646670   0.028441763
   9  8  0     -218.1251213308    -0.0094455980   0.003799887   0.003855200
  10  9  0     -218.1252218219    -0.0001004911   0.000701339   0.000559414
  11 10  0     -218.1252248607    -0.0000030388   0.000315896   0.000278100
  12 11  0     -218.1252250105    -0.0000001498   0.000159196   0.000109352
 DFT CODE IS SWITCHING BACK TO THE FINE GRID
          * * *   INITIATING DIIS PROCEDURE   * * *
  13 12  0     -218.1329131031    -0.0076880926   0.002070215   0.001605198
  14 13  0     -218.1329515129    -0.0000384098   0.000489117   0.000331196
  15 14  0     -218.1329518573    -0.0000003444   0.000481512   0.000313806
  16 15  0     -218.1329524817    -0.0000006244   0.000178107   0.000195214
  17 16  0     -218.1329526422    -0.0000001605   0.000027789   0.000024620
  18 17  0     -218.1329526462    -0.0000000040   0.000009418   0.000007260
  19 18  0     -218.1329526465    -0.0000000004   0.000002904   0.000001757

          -----------------
          DENSITY CONVERGED
          -----------------
     TIME TO FORM FOCK OPERATORS=       4.3 SECONDS (       0.2 SEC/ITER)
     TIME TO SOLVE SCF EQUATIONS=       0.1 SECONDS (       0.0 SEC/ITER)

 FINAL R-B3LYP ENERGY IS     -218.1329526465 AFTER  19 ITERATIONS
 DFT EXCHANGE + CORRELATION ENERGY =       -23.6061681043
 TOTAL ELECTRON NUMBER             =        34.0001188092

          ------------
          EIGENVECTORS
          ------------

                      1          2          3          4          5
                  -24.6088   -10.2440   -10.1885   -10.1564    -1.0990
                     A          A          A          A          A   
    1  C  1  S    0.000014   0.993171  -0.002280  -0.003384  -0.022353
    2  C  1  S   -0.000093   0.049755  -0.000223  -0.000372   0.041759
    3  C  1  X   -0.000034   0.000255  -0.000166   0.000039   0.009884
    4  C  1  Y   -0.000044   0.000084   0.000092  -0.000320   0.017927
    5  C  1  Z   -0.000026   0.000454   0.000017   0.000150   0.019695
    6  C  1  S    0.000131  -0.020790   0.003671   0.004397   0.025939
    7  C  1  X    0.000472  -0.003455   0.002107  -0.000420  -0.000288
    8  C  1  Y    0.000076  -0.002238  -0.001984   0.002916   0.001755
    9  C  1  Z   -0.000527  -0.000324  -0.000165  -0.000684   0.008975
   10  C  1 XX    0.000030  -0.008528  -0.000336  -0.000095  -0.002154
   11  C  1 YY    0.000092  -0.008577  -0.000243  -0.000369   0.000165
   12  C  1 ZZ    0.000002  -0.008894  -0.000136  -0.000126   0.000401
   13  C  1 XY   -0.000010   0.000066   0.000192   0.000027   0.000812
   14  C  1 XZ    0.000021  -0.000243   0.000006  -0.000013   0.001606
   15  C  1 YZ    0.000004  -0.000256  -0.000048   0.000134   0.002349
   16  C  2  S   -0.000027   0.003060  -0.000197   0.992862  -0.016870
   17  C  2  S    0.000013  -0.000274  -0.000273   0.050231   0.032071
   18  C  2  X   -0.000036  -0.000016  -0.000063   0.000142   0.007244
   19  C  2  Y    0.000015   0.000187   0.000069   0.000042  -0.008095
   20  C  2  Z   -0.000112   0.000074  -0.000027   0.000384   0.020998
   21  C  2  S    0.000385   0.006814   0.001268  -0.017058   0.012071
   22  C  2  X   -0.000093   0.001488  -0.000018  -0.000539   0.000733
   23  C  2  Y    0.000308  -0.003058  -0.000584   0.001120  -0.001673
   24  C  2  Z    0.000305   0.000585   0.000382  -0.002065   0.000565
   25  C  2 XX   -0.000100  -0.000086  -0.000067  -0.009010  -0.001355
   26  C  2 YY   -0.000089  -0.000391  -0.000028  -0.008944  -0.000461
   27  C  2 ZZ   -0.000179  -0.000146  -0.000112  -0.009352   0.001566
   28  C  2 XY    0.000040  -0.000066   0.000053  -0.000067  -0.000380
   29  C  2 XZ   -0.000035  -0.000019  -0.000041  -0.000165   0.001352
   30  C  2 YZ    0.000068   0.000050  -0.000061  -0.000162  -0.001072
   31  C  3  S    0.000029   0.002019   0.992936   0.000084  -0.006523
   32  C  3  S    0.000163  -0.000316   0.049896  -0.000219   0.010591
   33  C  3  X    0.000014   0.000066  -0.000083   0.000033  -0.004453
   34  C  3  Y    0.000076  -0.000028  -0.000003  -0.000060   0.005886
   35  C  3  Z    0.000043   0.000067  -0.000020  -0.000001   0.004097
   36  C  3  S   -0.000512   0.006255  -0.017265   0.001067   0.004910
   37  C  3  X    0.000035  -0.001599   0.001023  -0.000566  -0.000566
   38  C  3  Y   -0.000732   0.002517  -0.000768   0.000247   0.008040
   39  C  3  Z   -0.000058   0.000049  -0.000277   0.000170   0.001312
   40  C  3 XX    0.000044  -0.000511  -0.009043  -0.000023   0.000058
   41  C  3 YY    0.000013  -0.000144  -0.008950  -0.000061   0.000707
   42  C  3 ZZ    0.000038  -0.000143  -0.008930  -0.000151  -0.000074
   43  C  3 XY    0.000033   0.000143   0.000095  -0.000029  -0.001120
   44  C  3 XZ    0.000009   0.000002   0.000011  -0.000051  -0.000486
   45  C  3 YZ   -0.000037   0.000044   0.000021  -0.000023   0.001181
   46  H  4  S    0.000138  -0.000364  -0.000113  -0.000073   0.007555
   47  H  4  S    0.000192   0.001777   0.000209   0.000254   0.000467
   48  H  4  X    0.000005  -0.000218   0.000006   0.000089   0.001358
   49  H  4  Y    0.000003  -0.000054   0.000081  -0.000001   0.000984
   50  H  4  Z   -0.000002   0.000281  -0.000020  -0.000014   0.000123
   51  H  5  S   -0.000037  -0.000067  -0.000040  -0.000183   0.005529
   52  H  5  S   -0.000116   0.000667   0.000149   0.002404   0.001041
   53  H  5  X    0.000005   0.000047   0.000029  -0.000211   0.000834
   54  H  5  Y   -0.000026   0.000012  -0.000015   0.000088  -0.000491
   55  H  5  Z    0.000001  -0.000007  -0.000022   0.000159   0.000372
   56  H  6  S   -0.000007  -0.000301  -0.000063  -0.000178   0.005844
   57  H  6  S    0.000039  -0.000419  -0.000013   0.002289   0.000692
   58  H  6  X   -0.000001  -0.000045  -0.000016   0.000272  -0.000496
   59  H  6  Y   -0.000025   0.000047   0.000050   0.000057  -0.000461
   60  H  6  Z    0.000006   0.000014  -0.000026  -0.000011   0.000906
   61  H  7  S   -0.000024  -0.000201  -0.000139   0.000000   0.001625
   62  H  7  S   -0.000289   0.000187   0.002501  -0.000013   0.003509
   63  H  7  X   -0.000003   0.000014  -0.000095   0.000023   0.000026
   64  H  7  Y    0.000004  -0.000038  -0.000169   0.000015   0.000051
   65  H  7  Z   -0.000026   0.000036  -0.000137   0.000018   0.000181
   66  H  8  S    0.000070  -0.000262  -0.000093  -0.000082   0.001919
   67  H  8  S    0.000253  -0.000564   0.002604   0.000151  -0.000625
   68  H  8  X   -0.000012  -0.000032   0.000111   0.000004  -0.000262
   69  H  8  Y    0.000044  -0.000007   0.000139  -0.000025  -0.000279
   70  H  8  Z    0.000032   0.000013  -0.000055   0.000003   0.000132
   71  H  9  S    0.000098  -0.000182  -0.000047  -0.000016   0.003335
   72  H  9  S   -0.000295   0.000217   0.002654  -0.000060   0.006704
   73  H  9  X    0.000023  -0.000077   0.000010   0.000008  -0.000527
   74  H  9  Y    0.000009  -0.000007  -0.000022  -0.000008   0.000797
   75  H  9  Z    0.000043  -0.000038   0.000182  -0.000036  -0.000275
   76  H 10  S    0.000466  -0.000158  -0.000087   0.000279   0.078219
   77  H 10  S   -0.000969  -0.000110  -0.000175   0.002356   0.023929
   78  H 10  X    0.000099  -0.000029  -0.000017   0.000002   0.001569
   79  H 10  Y   -0.000381  -0.000109   0.000026   0.000099  -0.010713
   80  H 10  Z    0.000350   0.000010   0.000058  -0.000001   0.006198
   81  F 11  S    0.992926  -0.000228  -0.000046   0.000057  -0.227107
   82  F 11  S    0.019297  -0.001248  -0.000247   0.000237   0.499595
   83  F 11  X   -0.000004   0.000069  -0.000047   0.000031  -0.010916
   84  F 11  Y    0.000257   0.000068   0.000043   0.000038   0.028573
   85  F 11  Z   -0.000023   0.000076   0.000052   0.000050  -0.037869
   86  F 11  S    0.016224   0.004568   0.000671  -0.000982   0.499348
   87  F 11  X   -0.000015  -0.000482   0.000178  -0.000151  -0.007884
   88  F 11  Y   -0.000333  -0.000751  -0.000115  -0.000123   0.013411
   89  F 11  Z   -0.000111  -0.000986  -0.000108  -0.000319  -0.025707
   90  F 11 XX   -0.008330  -0.000874  -0.000205   0.000233   0.006378
   91  F 11 YY   -0.008522  -0.000826  -0.000165   0.000087   0.015236
   92  F 11 ZZ   -0.008452  -0.000823  -0.000216   0.000388   0.013381
   93  F 11 XY    0.000064   0.000088  -0.000073  -0.000039  -0.000062
   94  F 11 XZ   -0.000036   0.000017  -0.000080   0.000069   0.003040
   95  F 11 YZ    0.000268   0.000154   0.000083  -0.000106  -0.002511

                      6          7          8          9         10
                   -0.7882    -0.6958    -0.5785    -0.4719    -0.4509
                     A          A          A          A          A   
    1  C  1  S   -0.154453   0.020776  -0.121135  -0.029755  -0.002821
    2  C  1  S    0.308376  -0.044817   0.256176   0.071283  -0.001279
    3  C  1  X    0.035037   0.086801  -0.124728   0.257472   0.034449
    4  C  1  Y    0.025137  -0.174179  -0.087659   0.129745  -0.019249
    5  C  1  Z   -0.021413   0.018403   0.063174  -0.087132  -0.099053
    6  C  1  S    0.222620  -0.022492   0.257251   0.051707   0.036147
    7  C  1  X    0.010092   0.019726  -0.035834   0.079280   0.005211
    8  C  1  Y   -0.003874  -0.027122  -0.031722   0.034899   0.001357
    9  C  1  Z   -0.005630   0.007508   0.027555  -0.022674  -0.020790
   10  C  1 XX   -0.003965   0.010305  -0.002986  -0.002823  -0.000861
   11  C  1 YY    0.002508  -0.007395  -0.012045  -0.003340  -0.005201
   12  C  1 ZZ   -0.015605   0.001283  -0.008109  -0.001885   0.002485
   13  C  1 XY   -0.005819  -0.007652   0.004739   0.001391  -0.002860
   14  C  1 XZ   -0.002941  -0.000691  -0.003886   0.002412   0.000458
   15  C  1 YZ   -0.003693   0.004015  -0.001972   0.001454  -0.009812
   16  C  2  S   -0.107935   0.133908   0.080719   0.022697  -0.050841
   17  C  2  S    0.200967  -0.253209  -0.156173  -0.046340   0.110301
   18  C  2  X    0.011999   0.004862  -0.050881   0.211063   0.000060
   19  C  2  Y   -0.078043   0.014690  -0.150302  -0.184575   0.030923
   20  C  2  Z    0.030591  -0.037150   0.020954  -0.003126  -0.192535
   21  C  2  S    0.163103  -0.241050  -0.171819  -0.042220   0.074280
   22  C  2  X    0.003034  -0.003600  -0.022114   0.098400  -0.003009
   23  C  2  Y   -0.004027  -0.005806  -0.045774  -0.069509   0.012396
   24  C  2  Z    0.015918  -0.020956  -0.002211  -0.003874  -0.107010
   25  C  2 XX   -0.007483   0.006370  -0.003578  -0.005165   0.005421
   26  C  2 YY    0.004406   0.003641   0.012039   0.004605   0.004344
   27  C  2 ZZ   -0.007165   0.006300   0.002567   0.001239  -0.016675
   28  C  2 XY   -0.001214  -0.001148   0.001103   0.000028  -0.000005
   29  C  2 XZ    0.000310   0.000683   0.000640   0.005987  -0.009336
   30  C  2 YZ   -0.004334   0.001968  -0.005363  -0.005089  -0.000438
   31  C  3  S   -0.113850  -0.145550   0.066850   0.012936   0.007935
   32  C  3  S    0.220111   0.285517  -0.134782  -0.026153  -0.016976
   33  C  3  X   -0.049878   0.004784  -0.133827  -0.012840  -0.021905
   34  C  3  Y    0.040650  -0.022725   0.051207   0.237750   0.055803
   35  C  3  Z    0.001656   0.004709   0.033542  -0.031090  -0.015524
   36  C  3  S    0.166737   0.257175  -0.146083  -0.025210  -0.034485
   37  C  3  X   -0.006451  -0.000283  -0.040167   0.003224  -0.016231
   38  C  3  Y   -0.002146  -0.008411   0.016524   0.106901   0.048969
   39  C  3  Z   -0.001739   0.001625   0.009238  -0.012631  -0.011893
   40  C  3 XX    0.000398  -0.006200   0.010376   0.003475   0.001503
   41  C  3 YY   -0.002511  -0.008061   0.001341   0.005031  -0.000539
   42  C  3 ZZ   -0.008002  -0.005893  -0.000198  -0.006285  -0.001377
   43  C  3 XY   -0.006940   0.001016  -0.008415  -0.005857  -0.001622
   44  C  3 XZ   -0.000796  -0.000196  -0.001407  -0.003641  -0.000037
   45  C  3 YZ    0.000038   0.000460   0.002054  -0.003557  -0.001186
   46  H  4  S    0.084952  -0.012269   0.183894  -0.138308  -0.030467
   47  H  4  S    0.018648  -0.002556   0.093055  -0.115956  -0.021067
   48  H  4  X    0.007306   0.000181   0.009777  -0.003277  -0.001163
   49  H  4  Y    0.003896  -0.002987   0.004523  -0.001504  -0.001466
   50  H  4  Z   -0.003679   0.000702  -0.004429   0.002165  -0.000881
   51  H  5  S    0.050020  -0.093374  -0.087202  -0.177811   0.055093
   52  H  5  S    0.007663  -0.029215  -0.042273  -0.121852   0.044315
   53  H  5  X    0.004428  -0.007321  -0.006387  -0.005907   0.002210
   54  H  5  Y   -0.003841   0.005294   0.001372   0.003433  -0.001429
   55  H  5  Z   -0.000318   0.000300   0.000753   0.000226  -0.004267
   56  H  6  S    0.054069  -0.083263  -0.123195   0.019965   0.112816
   57  H  6  S    0.012959  -0.023408  -0.062985   0.013083   0.084508
   58  H  6  X   -0.004237   0.006262   0.006206   0.002440  -0.005363
   59  H  6  Y   -0.003765   0.003545   0.002391  -0.004090  -0.002929
   60  H  6  Z    0.002848  -0.004065  -0.004511   0.001081  -0.000910
   61  H  7  S    0.062153   0.106677  -0.071706  -0.109194  -0.027290
   62  H  7  S    0.009451   0.035704  -0.034114  -0.075604  -0.009908
   63  H  7  X    0.000589   0.001710  -0.003261  -0.000884  -0.000485
   64  H  7  Y    0.005586   0.007744  -0.003724  -0.001584  -0.000161
   65  H  7  Z    0.003686   0.005892  -0.002826  -0.004478  -0.000768
   66  H  8  S    0.064809   0.096371  -0.100396   0.055260   0.003075
   67  H  8  S    0.016637   0.030307  -0.053768   0.039750   0.003671
   68  H  8  X   -0.005935  -0.006916   0.004390  -0.003296  -0.000419
   69  H  8  Y   -0.002415  -0.005185   0.003831   0.003300   0.000746
   70  H  8  Z    0.002693   0.003667  -0.002410   0.000586  -0.000585
   71  H  9  S    0.061019   0.106323  -0.065716  -0.077988  -0.026042
   72  H  9  S    0.007766   0.035616  -0.026072  -0.055666   0.022313
   73  H  9  X   -0.002146  -0.002930  -0.000859   0.001399  -0.000665
   74  H  9  Y    0.002465   0.003348  -0.000560   0.002315   0.001944
   75  H  9  Z   -0.005668  -0.008801   0.005578   0.004023   0.001439
   76  H 10  S    0.026180  -0.068567  -0.082546   0.001383  -0.213870
   77  H 10  S   -0.008139  -0.017135  -0.054704  -0.019279  -0.149718
   78  H 10  X   -0.001936   0.002952  -0.000045   0.005195   0.000308
   79  H 10  Y   -0.001034   0.002940   0.001460  -0.004031   0.012114
   80  H 10  Z   -0.006115   0.006190   0.003835  -0.001069  -0.006331
   81  F 11  S    0.045646  -0.023493  -0.006880   0.007535  -0.047190
   82  F 11  S   -0.097959   0.048428   0.007418  -0.018159   0.080532
   83  F 11  X   -0.014865   0.025994  -0.025631   0.046559   0.123630
   84  F 11  Y   -0.018487  -0.041513  -0.100852  -0.021773  -0.311819
   85  F 11  Z   -0.050482   0.045693   0.017235  -0.108296   0.324099
   86  F 11  S   -0.136579   0.079124   0.038192  -0.021547   0.216250
   87  F 11  X   -0.007468   0.015090  -0.018132   0.033492   0.083888
   88  F 11  Y   -0.009122  -0.022697  -0.058346  -0.012296  -0.202161
   89  F 11  Z   -0.026106   0.025658   0.006851  -0.077755   0.216941
   90  F 11 XX    0.000849  -0.001441  -0.002096  -0.002821  -0.009075
   91  F 11 YY   -0.000621  -0.000756  -0.005492  -0.002492  -0.016177
   92  F 11 ZZ    0.005687  -0.004682  -0.002369   0.007609  -0.020648
   93  F 11 XY    0.000258   0.000509   0.001976   0.000434   0.003456
   94  F 11 XZ    0.001995  -0.002370   0.002249  -0.001055  -0.006053
   95  F 11 YZ    0.001596   0.002605   0.005323   0.000623   0.011209

                     11         12         13         14         15
                   -0.4263    -0.4238    -0.3752    -0.3599    -0.3512
                     A          A          A          A          A   
    1  C  1  S    0.015375   0.004626  -0.001065  -0.000963  -0.023651
    2  C  1  S   -0.037085  -0.014131   0.001633   0.007242   0.069644
    3  C  1  X    0.056752  -0.128665  -0.014910   0.282531   0.002703
    4  C  1  Y    0.002024   0.309279  -0.232885  -0.017402   0.006501
    5  C  1  Z    0.181622  -0.034154   0.071260  -0.051208  -0.158551
    6  C  1  S   -0.015907  -0.005247   0.004732   0.002374  -0.002158
    7  C  1  X    0.034639  -0.041137  -0.015065   0.083342  -0.022652
    8  C  1  Y    0.008868   0.115345  -0.062932  -0.001064  -0.009769
    9  C  1  Z    0.094697   0.004303   0.017859  -0.005014  -0.122165
   10  C  1 XX    0.003270  -0.003842   0.017761  -0.005481   0.004088
   11  C  1 YY   -0.002421  -0.000052  -0.012737   0.004537   0.003886
   12  C  1 ZZ    0.001928   0.001304  -0.002128  -0.000682  -0.009630
   13  C  1 XY    0.000273  -0.001344   0.001119  -0.020755  -0.006700
   14  C  1 XZ    0.009780   0.002541  -0.007210   0.007943   0.003319
   15  C  1 YZ   -0.002841  -0.001618   0.002756   0.009302  -0.010381
   16  C  2  S   -0.006104  -0.009846   0.026471  -0.004461  -0.004110
   17  C  2  S    0.006252   0.024932  -0.057495   0.005803   0.022052
   18  C  2  X    0.004722  -0.188078  -0.110207  -0.268867  -0.098574
   19  C  2  Y    0.089374  -0.229662   0.212522   0.030331  -0.108312
   20  C  2  Z    0.040194   0.094702  -0.003736   0.104418  -0.015745
   21  C  2  S    0.043290  -0.001685  -0.094008   0.035986  -0.036838
   22  C  2  X    0.009703  -0.087854  -0.036709  -0.095877  -0.036252
   23  C  2  Y    0.040896  -0.082105   0.076803   0.017925  -0.055853
   24  C  2  Z    0.031930   0.028629  -0.000748   0.048647  -0.043284
   25  C  2 XX    0.002217  -0.009249   0.008372  -0.001078  -0.000229
   26  C  2 YY   -0.005633   0.005719  -0.002425   0.000875   0.007196
   27  C  2 ZZ    0.002238  -0.002574   0.001313  -0.001219  -0.005556
   28  C  2 XY   -0.001727  -0.005748  -0.004203  -0.021898  -0.003148
   29  C  2 XZ    0.001011   0.001147  -0.002374   0.004135   0.002017
   30  C  2 YZ   -0.003477  -0.003734   0.005549   0.005439   0.004797
   31  C  3  S    0.000419  -0.005060  -0.008298  -0.017310  -0.007437
   32  C  3  S   -0.000008   0.007121   0.020144   0.035988   0.014047
   33  C  3  X    0.075644   0.296048   0.108192  -0.247277  -0.022695
   34  C  3  Y    0.055897   0.000004   0.343869   0.069091   0.044430
   35  C  3  Z    0.356833  -0.048041  -0.087968  -0.038172   0.206637
   36  C  3  S   -0.006038   0.012020   0.039060   0.090666   0.051300
   37  C  3  X    0.035467   0.129153   0.043652  -0.115242  -0.009147
   38  C  3  Y    0.021672   0.009026   0.145444   0.048651   0.025883
   39  C  3  Z    0.160861  -0.031144  -0.040353  -0.017445   0.115482
   40  C  3 XX   -0.003559  -0.003298   0.016017  -0.002249   0.000539
   41  C  3 YY   -0.006284   0.001289  -0.008541   0.003422  -0.005241
   42  C  3 ZZ    0.010389   0.003041  -0.009653  -0.005357   0.002317
   43  C  3 XY   -0.005410   0.009751   0.005231  -0.009411  -0.007111
   44  C  3 XZ   -0.001100  -0.002560  -0.012823   0.001787   0.006387
   45  C  3 YZ   -0.008877  -0.005276  -0.007355   0.007620  -0.011955
   46  H  4  S   -0.007525  -0.031193   0.101282  -0.183865  -0.014436
   47  H  4  S   -0.004358  -0.022655   0.094621  -0.189931  -0.030106
   48  H  4  X    0.001170  -0.003621   0.002779  -0.002242  -0.001591
   49  H  4  Y    0.000217   0.005978  -0.001816  -0.003061  -0.001348
   50  H  4  Z    0.004116  -0.000051  -0.000775   0.002941  -0.004682
   51  H  5  S    0.035176   0.032477   0.114204   0.188058   0.026475
   52  H  5  S    0.024480   0.025145   0.121108   0.185299   0.031323
   53  H  5  X    0.001863  -0.001137   0.003118   0.003311  -0.001017
   54  H  5  Y    0.000270  -0.005533   0.000562  -0.004040  -0.002454
   55  H  5  Z    0.000418   0.001459   0.000091   0.001394  -0.000297
   56  H  6  S    0.020219  -0.167579  -0.015626  -0.178900  -0.078325
   57  H  6  S    0.011618  -0.130881   0.000430  -0.190332  -0.079411
   58  H  6  X   -0.000990   0.004076   0.000017   0.001240   0.001499
   59  H  6  Y    0.001146  -0.000263   0.003893   0.004206   0.000254
   60  H  6  Z    0.001466  -0.003610  -0.000618  -0.002916  -0.001944
   61  H  7  S   -0.166645  -0.011084  -0.161272   0.030907  -0.105478
   62  H  7  S   -0.138658  -0.011218  -0.159638   0.028804  -0.103164
   63  H  7  X    0.000282   0.005602   0.000520  -0.004203  -0.001406
   64  H  7  Y   -0.007004  -0.000608   0.000245   0.002076  -0.002806
   65  H  7  Z    0.000922  -0.000990  -0.007114  -0.000055   0.001248
   66  H  8  S   -0.033923   0.155193   0.209941  -0.092458  -0.049784
   67  H  8  S   -0.025451   0.112124   0.192487  -0.113426  -0.047918
   68  H  8  X    0.002850  -0.001678  -0.005957  -0.000950   0.001480
   69  H  8  Y    0.001988  -0.004881   0.000781   0.002485   0.001960
   70  H  8  Z    0.005903   0.002754   0.002608  -0.002382   0.003053
   71  H  9  S    0.198703   0.032361  -0.110186  -0.069451   0.123331
   72  H  9  S    0.161077   0.036956  -0.109290  -0.065321   0.097440
   73  H  9  X   -0.002852   0.004519   0.003987  -0.003746  -0.000654
   74  H  9  Y    0.005913   0.001007   0.004867   0.000422   0.001077
   75  H  9  Z   -0.003080  -0.002642   0.003726   0.002892  -0.002184
   76  H 10  S   -0.013330  -0.065470   0.031000  -0.010902   0.024105
   77  H 10  S   -0.051466  -0.072375   0.059121  -0.037871   0.107707
   78  H 10  X   -0.001159  -0.005071  -0.000990  -0.005786   0.006854
   79  H 10  Y    0.000083  -0.001212   0.002325  -0.000247   0.000854
   80  H 10  Z   -0.006573  -0.000141   0.003706  -0.000548   0.007491
   81  F 11  S    0.013678  -0.008669   0.005154  -0.001493   0.000733
   82  F 11  S   -0.031351   0.010576  -0.002554  -0.000710   0.000910
   83  F 11  X   -0.001946  -0.044634  -0.000955  -0.006357   0.345955
   84  F 11  Y   -0.211911  -0.107409   0.091844  -0.102185   0.338249
   85  F 11  Z   -0.144641   0.043903   0.015874  -0.081568   0.176562
   86  F 11  S   -0.048560   0.050963  -0.040105   0.016437  -0.013263
   87  F 11  X    0.001203  -0.033333   0.001532  -0.006969   0.252832
   88  F 11  Y   -0.142683  -0.066411   0.059584  -0.071132   0.232762
   89  F 11  Z   -0.098124   0.027769   0.017619  -0.061953   0.126009
   90  F 11 XX    0.000471  -0.001161   0.004216  -0.002578  -0.003322
   91  F 11 YY   -0.002250  -0.008511   0.007349  -0.003362   0.007424
   92  F 11 ZZ    0.006089  -0.002947  -0.000219   0.002418  -0.005578
   93  F 11 XY    0.000806  -0.000417  -0.000441  -0.000943   0.001009
   94  F 11 XZ    0.000722   0.002753  -0.001800   0.000880  -0.007762
   95  F 11 YZ    0.004690   0.002268  -0.000658   0.002485  -0.004022

                     16         17         18         19         20
                   -0.3262    -0.2034    -0.0184     0.1080     0.1292
                     A          A          A          A          A   
    1  C  1  S    0.011121  -0.012844  -0.015088  -0.045738   0.056065
    2  C  1  S   -0.019665   0.051381   0.047693   0.080798  -0.076040
    3  C  1  X   -0.102107   0.064234   0.143821  -0.165908   0.180758
    4  C  1  Y    0.000776   0.087089   0.153327  -0.100861   0.062681
    5  C  1  Z    0.065837   0.196628   0.469963   0.035108  -0.077425
    6  C  1  S   -0.061102  -0.053364   0.050830   0.794347  -0.849057
    7  C  1  X   -0.051835   0.037841   0.186223  -0.448861   0.329310
    8  C  1  Y   -0.023256   0.011672   0.243831  -0.198485   0.189622
    9  C  1  Z    0.007965   0.131562   0.504909   0.186180  -0.178592
   10  C  1 XX    0.004379   0.002267   0.003990  -0.005355   0.015860
   11  C  1 YY   -0.000720   0.011864   0.000754   0.005580  -0.004205
   12  C  1 ZZ    0.001492  -0.013607  -0.006212  -0.007104   0.007974
   13  C  1 XY    0.008814   0.002104  -0.005872  -0.009386   0.019014
   14  C  1 XZ    0.002638  -0.008091  -0.004979   0.002218  -0.008305
   15  C  1 YZ    0.003329   0.005639  -0.012448   0.001624  -0.002938
   16  C  2  S    0.003396  -0.010255  -0.007199  -0.066312  -0.049584
   17  C  2  S   -0.013364   0.024599   0.041414   0.078517   0.045811
   18  C  2  X   -0.018299   0.135901  -0.064433  -0.044669   0.190163
   19  C  2  Y    0.037859   0.044530  -0.064609   0.124770   0.071926
   20  C  2  Z    0.017727   0.393452  -0.180350   0.008974  -0.079324
   21  C  2  S    0.034543   0.078789  -0.114567   1.028680   0.781551
   22  C  2  X    0.038413   0.108775  -0.098035  -0.027084   0.488772
   23  C  2  Y    0.009330   0.065085  -0.087174   0.465810   0.188986
   24  C  2  Z    0.020821   0.303645  -0.248210   0.045120  -0.133312
   25  C  2 XX    0.003768  -0.001232   0.006216  -0.012521  -0.003160
   26  C  2 YY   -0.002293  -0.000014  -0.006582  -0.002852  -0.004879
   27  C  2 ZZ   -0.000531   0.008293  -0.002800  -0.001964  -0.006671
   28  C  2 XY    0.001943   0.000464  -0.008324   0.013524  -0.012147
   29  C  2 XZ    0.003836   0.004108  -0.007514  -0.000608   0.005747
   30  C  2 YZ   -0.002782  -0.001284  -0.027687  -0.002955   0.002473
   31  C  3  S    0.014678  -0.002437  -0.012797  -0.091044  -0.047414
   32  C  3  S   -0.042571   0.011422   0.029333   0.116099   0.044965
   33  C  3  X    0.041669  -0.029971  -0.024357   0.082541   0.168747
   34  C  3  Y   -0.071818   0.005078   0.002551  -0.097249   0.089172
   35  C  3  Z   -0.134148  -0.044420   0.010226  -0.033384  -0.074899
   36  C  3  S   -0.043106  -0.001981   0.138958   1.458731   0.842933
   37  C  3  X    0.032799  -0.016921  -0.013738   0.351883   0.388695
   38  C  3  Y    0.035742   0.005247  -0.074872  -0.241977   0.216614
   39  C  3  Z   -0.003221  -0.022544   0.043469  -0.112505  -0.155113
   40  C  3 XX   -0.002228  -0.001406  -0.008660   0.003812  -0.013403
   41  C  3 YY    0.003460   0.004998   0.009743  -0.018622   0.003329
   42  C  3 ZZ    0.000442  -0.002693  -0.003186  -0.011943  -0.004793
   43  C  3 XY    0.005959   0.000522   0.000576  -0.001818  -0.006920
   44  C  3 XZ   -0.003062  -0.005874  -0.017372  -0.003756   0.005700
   45  C  3 YZ    0.009907   0.006695   0.016261   0.000336   0.000069
   46  H  4  S    0.065429   0.019089   0.022488  -0.023403   0.112136
   47  H  4  S    0.046110   0.016466   0.024380  -1.010348   1.195939
   48  H  4  X    0.000306   0.001294   0.004465   0.001935  -0.005713
   49  H  4  Y    0.000849   0.001798   0.003852   0.000581  -0.004095
   50  H  4  Z   -0.001014   0.004901   0.014018  -0.003027   0.002546
   51  H  5  S    0.019461  -0.025335   0.033856  -0.056800   0.012568
   52  H  5  S    0.021315  -0.057664   0.083653  -0.860959   0.164885
   53  H  5  X    0.000258   0.002339  -0.002421   0.003805   0.000546
   54  H  5  Y   -0.000482   0.002457  -0.003164  -0.001021   0.002049
   55  H  5  Z   -0.000666   0.010894  -0.008111  -0.003024  -0.002735
   56  H  6  S   -0.005760  -0.023447   0.046833   0.020452  -0.043927
   57  H  6  S   -0.003077  -0.056322   0.122184  -0.456703  -1.098069
   58  H  6  X    0.000324   0.005087  -0.003488  -0.006117  -0.005560
   59  H  6  Y    0.001466   0.002539  -0.002700   0.006793  -0.001616
   60  H  6  Z    0.000449   0.009969  -0.008163  -0.001607  -0.000030
   61  H  7  S    0.081972   0.040685   0.074959  -0.035926   0.010957
   62  H  7  S    0.144281   0.049417   0.104784  -0.858264  -0.041333
   63  H  7  X    0.001616   0.000600   0.003814   0.002429   0.003704
   64  H  7  Y    0.002410   0.000406  -0.002247   0.003659   0.000951
   65  H  7  Z   -0.000387  -0.000205  -0.000236   0.001942  -0.001257
   66  H  8  S    0.019195   0.001812  -0.000844   0.012028  -0.055579
   67  H  8  S    0.029177  -0.001243   0.005834  -0.644438  -1.089732
   68  H  8  X    0.000075  -0.000476  -0.001277   0.002983  -0.003476
   69  H  8  Y   -0.002914   0.000302   0.000947  -0.008220  -0.002850
   70  H  8  Z   -0.003453  -0.000644  -0.000499   0.000633   0.002101
   71  H  9  S   -0.075720  -0.047178  -0.074103  -0.026186   0.007753
   72  H  9  S   -0.063584  -0.043547  -0.305411  -0.676008  -0.091138
   73  H  9  X    0.001034  -0.001074  -0.002734   0.000715   0.003953
   74  H  9  Y   -0.001271   0.000414   0.000309   0.000688   0.000464
   75  H  9  Z    0.001891   0.000595   0.000351  -0.003695  -0.001524
   76  H 10  S   -0.006355   0.066442  -0.146502   0.000428  -0.000200
   77  H 10  S   -0.042961   0.112812  -0.293232  -0.351565  -0.245954
   78  H 10  X    0.011217  -0.004364   0.004159  -0.001448   0.000148
   79  H 10  Y   -0.001243   0.009126  -0.008439   0.002435   0.000061
   80  H 10  Z   -0.007115  -0.014674   0.011554  -0.002606  -0.000886
   81  F 11  S   -0.002605   0.028668   0.002496  -0.014827  -0.009413
   82  F 11  S   -0.001450  -0.059092  -0.001899   0.035350  -0.005974
   83  F 11  X    0.512732   0.154853   0.056572   0.027872  -0.004021
   84  F 11  Y   -0.155355  -0.086960   0.281879  -0.002156   0.013930
   85  F 11  Z   -0.304279   0.394058   0.048069  -0.005097  -0.007346
   86  F 11  S    0.032321  -0.169369  -0.011888   0.112673   0.131031
   87  F 11  X    0.379106   0.124575   0.054210   0.029462  -0.028900
   88  F 11  Y   -0.111031  -0.073771   0.275937   0.038699   0.020175
   89  F 11  Z   -0.233623   0.321177   0.053435  -0.027379  -0.021963
   90  F 11 XX   -0.006662   0.003418   0.001792  -0.002162  -0.012533
   91  F 11 YY   -0.006296   0.001934   0.001591   0.001075  -0.011399
   92  F 11 ZZ    0.007047   0.003181   0.001225   0.003552  -0.009381
   93  F 11 XY    0.008253   0.001713   0.004444  -0.000755  -0.000245
   94  F 11 XZ   -0.005800   0.000449   0.000553   0.002729  -0.000883
   95  F 11 YZ   -0.001074   0.003328   0.008755  -0.002267  -0.001163

                     21         22         23         24         25
                    0.1446     0.1641     0.1684     0.1782     0.1832
                     A          A          A          A          A   
    1  C  1  S   -0.009502  -0.028547  -0.107391  -0.018265  -0.061932
    2  C  1  S   -0.002439   0.023165   0.166118   0.000945   0.092681
    3  C  1  X    0.036767  -0.032940  -0.020507   0.019213   0.096092
    4  C  1  Y   -0.101200   0.004655  -0.043604   0.012904  -0.111072
    5  C  1  Z    0.080854   0.076867  -0.019536   0.147102   0.015591
    6  C  1  S    0.231218   0.732374   1.735839   0.475663   1.068832
    7  C  1  X    0.236802  -0.322869  -0.199435   0.077182   0.199879
    8  C  1  Y   -0.633700   0.150295  -0.136877   0.153546  -0.298906
    9  C  1  Z    0.113474   0.019739  -0.002537   0.468005   0.116452
   10  C  1 XX   -0.008660   0.008914   0.003917  -0.009481  -0.016856
   11  C  1 YY    0.002109  -0.018610  -0.015852  -0.009368   0.006864
   12  C  1 ZZ    0.002824   0.004541  -0.008844   0.010589   0.001582
   13  C  1 XY    0.003766  -0.003249   0.015430  -0.006974   0.022065
   14  C  1 XZ    0.005969   0.010109  -0.008001  -0.016181  -0.001129
   15  C  1 YZ   -0.007850  -0.009954   0.013039  -0.005183  -0.017053
   16  C  2  S   -0.104192   0.054047   0.050718   0.015641   0.020764
   17  C  2  S    0.107053  -0.038864  -0.073062   0.000584   0.001311
   18  C  2  X   -0.039791  -0.076216   0.134718  -0.046938   0.239287
   19  C  2  Y    0.122180  -0.060729   0.116961  -0.024678  -0.091089
   20  C  2  Z   -0.094621  -0.190515   0.108856  -0.133672  -0.140105
   21  C  2  S    1.902129  -0.979104  -0.669392  -0.344452  -0.397404
   22  C  2  X   -0.066732  -0.180126   0.439008  -0.151824   0.801941
   23  C  2  Y    0.240471   0.156517   0.381599   0.063702  -0.110514
   24  C  2  Z   -0.097992  -0.593409   0.173134  -0.530778  -0.498151
   25  C  2 XX   -0.015546  -0.002341   0.005175  -0.007291   0.000105
   26  C  2 YY   -0.009374   0.005997   0.016404  -0.000416   0.005423
   27  C  2 ZZ   -0.002742   0.010842  -0.008144   0.009518   0.001191
   28  C  2 XY   -0.004650   0.011019  -0.007338   0.001734  -0.013558
   29  C  2 XZ    0.008813   0.008219  -0.005743  -0.000316   0.010866
   30  C  2 YZ    0.003328   0.009728  -0.011454   0.004518   0.010104
   31  C  3  S    0.103126  -0.017131   0.064455   0.013836   0.035728
   32  C  3  S   -0.105271   0.019825  -0.078150  -0.011044  -0.065455
   33  C  3  X   -0.020402   0.171841   0.168806  -0.057107   0.063601
   34  C  3  Y    0.106188   0.150619   0.111764  -0.014837  -0.283959
   35  C  3  Z    0.056057   0.117466  -0.064754  -0.370690   0.054715
   36  C  3  S   -1.874829   0.373620  -0.907674  -0.239495  -0.363341
   37  C  3  X    0.108312   0.541669   0.703148  -0.143868   0.276535
   38  C  3  Y    0.154213   0.585605   0.319692  -0.084583  -0.917074
   39  C  3  Z    0.127443   0.373255  -0.327070  -1.256844   0.179185
   40  C  3 XX    0.016446  -0.006209   0.007499  -0.005029   0.014142
   41  C  3 YY    0.005300   0.002270   0.005856  -0.004509   0.003460
   42  C  3 ZZ    0.008982  -0.001554   0.007112   0.013462  -0.011905
   43  C  3 XY    0.006449  -0.004262  -0.017528  -0.007058  -0.007913
   44  C  3 XZ   -0.007851   0.000040   0.011151  -0.004202  -0.010316
   45  C  3 YZ    0.003570   0.017904   0.000458  -0.002348  -0.000680
   46  H  4  S   -0.012033  -0.016590   0.002276   0.005698   0.002812
   47  H  4  S   -0.219817  -0.473475  -0.910943  -0.216108  -0.395694
   48  H  4  X    0.004958  -0.000947  -0.000520   0.003348   0.006470
   49  H  4  Y   -0.005095   0.004099   0.002013   0.003818  -0.010108
   50  H  4  Z    0.002181   0.001902  -0.004269   0.010778   0.002380
   51  H  5  S   -0.030557  -0.077871   0.083415  -0.041951   0.043714
   52  H  5  S   -1.012759   0.009106   0.661279  -0.092767   1.209020
   53  H  5  X    0.005356  -0.000687   0.000350   0.000998  -0.000402
   54  H  5  Y    0.001559  -0.000709   0.008850  -0.000341   0.007247
   55  H  5  Z   -0.007237  -0.000164   0.000882  -0.000567  -0.001214
   56  H  6  S   -0.087090  -0.034873   0.058373  -0.036976  -0.080217
   57  H  6  S   -1.022368   0.088065  -0.023811  -0.120864  -0.938718
   58  H  6  X   -0.005949  -0.000487   0.000441  -0.001934   0.000792
   59  H  6  Y   -0.003322   0.004623   0.006804   0.000109  -0.005991
   60  H  6  Z   -0.001621   0.000424   0.000317  -0.002321   0.001728
   61  H  7  S    0.011502   0.086744   0.010895  -0.037049  -0.033473
   62  H  7  S    0.974649   0.962760   0.669270  -0.975178  -0.564308
[...]
   86  F 11  S   -0.004007  -0.069666  -0.015529  -0.002621  -0.713809
   87  F 11  X   -0.027025  -0.017785   0.020476  -0.014557   0.073662
   88  F 11  Y    0.017275  -0.092170   0.036452   0.042990  -0.255602
   89  F 11  Z    0.018377   0.012330   0.009532   0.001535   0.264155
   90  F 11 XX   -0.009328   0.003213   0.000622   0.006801   0.028095
   91  F 11 YY   -0.003283   0.002114   0.003165   0.007879   0.039593
   92  F 11 ZZ   -0.004141   0.001766  -0.003101   0.013279   0.027508
   93  F 11 XY   -0.001028  -0.003111  -0.002763   0.000787   0.001219
   94  F 11 XZ   -0.000156  -0.002204   0.003336  -0.002320  -0.000910
   95  F 11 YZ   -0.001074   0.005553  -0.000151   0.002986  -0.000341

                     26         27
                    0.2684     0.3299
                     A          A   
    1  C  1  S    0.068555   0.045336
    2  C  1  S   -0.074589  -0.030182
    3  C  1  X   -0.347679   0.066718
    4  C  1  Y    0.046245  -0.360935
    5  C  1  Z    0.135502   0.068471
    6  C  1  S   -1.807691  -1.982735
    7  C  1  X   -1.814510   0.468667
    8  C  1  Y    0.119748  -2.422577
    9  C  1  Z    0.843206   0.887482
   10  C  1 XX    0.001844  -0.009611
   11  C  1 YY   -0.006150   0.004923
   12  C  1 ZZ    0.004843   0.003332
   13  C  1 XY    0.007549   0.009127
   14  C  1 XZ   -0.004758   0.005585
   15  C  1 YZ    0.000373  -0.006525
   16  C  2  S   -0.039622  -0.071353
   17  C  2  S    0.011734  -0.021999
   18  C  2  X    0.222748  -0.008059
   19  C  2  Y   -0.002908  -0.099624
   20  C  2  Z   -0.040810   0.160599
   21  C  2  S    0.927589   2.585974
   22  C  2  X    1.439481   0.047431
   23  C  2  Y   -0.667969  -2.237158
   24  C  2  Z   -0.101776   1.435540
   25  C  2 XX    0.004621   0.021575
   26  C  2 YY   -0.008718  -0.023370
   27  C  2 ZZ   -0.000947  -0.004468
   28  C  2 XY    0.010532  -0.012015
   29  C  2 XZ   -0.015577  -0.007816
   30  C  2 YZ   -0.007763   0.011694
   31  C  3  S   -0.051391   0.011275
   32  C  3  S   -0.020979  -0.019445
   33  C  3  X   -0.123310   0.190637
   34  C  3  Y    0.089991  -0.001365
   35  C  3  Z    0.010145   0.052108
   36  C  3  S    1.483056  -0.461073
   37  C  3  X   -1.108736   0.956313
   38  C  3  Y    1.282245   0.118802
   39  C  3  Z    0.104459  -0.492880
   40  C  3 XX   -0.011051   0.013867
   41  C  3 YY   -0.009920  -0.013070
   42  C  3 ZZ    0.010377  -0.003188
   43  C  3 XY    0.026275  -0.008944
   44  C  3 XZ    0.003782  -0.020143
   45  C  3 YZ   -0.008484  -0.000186
   46  H  4  S    0.008540  -0.006653
   47  H  4  S   -1.194705  -0.383997
   48  H  4  X   -0.000185   0.007130
   49  H  4  Y    0.003543  -0.009809
   50  H  4  Z    0.000857  -0.001305
   51  H  5  S    0.006687   0.122263
   52  H  5  S    1.156155   0.311032
   53  H  5  X   -0.000419  -0.008242
   54  H  5  Y   -0.006141  -0.008597
   55  H  5  Z    0.002937   0.009607
   56  H  6  S    0.048210   0.081920
   57  H  6  S   -1.222363   0.777294
   58  H  6  X    0.004112   0.009908
   59  H  6  Y   -0.002630  -0.014369
   60  H  6  Z    0.002708   0.001720
   61  H  7  S    0.063451  -0.062009
   62  H  7  S    0.166957   0.131722
   63  H  7  X   -0.008479   0.009426
   64  H  7  Y    0.005400  -0.004092
   65  H  7  Z   -0.000150  -0.003584
   66  H  8  S    0.066525  -0.030437
   67  H  8  S   -0.005722  -0.857470
   68  H  8  X   -0.002296   0.001600
   69  H  8  Y    0.008213  -0.007497
   70  H  8  Z   -0.001170  -0.006010
   71  H  9  S    0.065513  -0.026588
   72  H  9  S    0.358404   0.093872
   73  H  9  X   -0.009579  -0.003665
   74  H  9  Y    0.005096   0.007703
   75  H  9  Z    0.005774  -0.002472
   76  H 10  S   -0.032746   0.051761
   77  H 10  S   -0.412347  -0.598848
   78  H 10  X   -0.001187   0.000146
   79  H 10  Y   -0.000200   0.006652
   80  H 10  Z    0.002891  -0.003794
   81  F 11  S   -0.014776  -0.016259
   82  F 11  S   -0.007825   0.000363
   83  F 11  X   -0.016396   0.003626
   84  F 11  Y    0.038445   0.022045
   85  F 11  Z   -0.028476  -0.011985
   86  F 11  S    0.216635   0.254402
   87  F 11  X    0.011252  -0.032133
   88  F 11  Y    0.035718   0.068143
   89  F 11  Z   -0.086053  -0.091282
   90  F 11 XX   -0.017455  -0.020355
   91  F 11 YY   -0.017057  -0.010384
   92  F 11 ZZ   -0.014956  -0.006111
   93  F 11 XY   -0.003258  -0.001562
   94  F 11 XZ   -0.001588   0.004890
   95  F 11 YZ    0.001000  -0.010413

     ---------------------------------------------------------------------
     PROPERTIES FOR THE B3LYP    DFT FUNCTIONAL (RHF  TYPE) DENSITY MATRIX
     ---------------------------------------------------------------------

          -----------------
          ENERGY COMPONENTS
          -----------------

         WAVEFUNCTION NORMALIZATION =       1.0000000000

                ONE ELECTRON ENERGY =    -554.4669548116
                TWO ELECTRON ENERGY =     206.8912737671
           NUCLEAR REPULSION ENERGY =     129.4104542135
                                      ------------------
                       TOTAL ENERGY =    -218.1652268310

 ELECTRON-ELECTRON POTENTIAL ENERGY =     206.8912737671
  NUCLEUS-ELECTRON POTENTIAL ENERGY =    -771.1329242509
   NUCLEUS-NUCLEUS POTENTIAL ENERGY =     129.4104542135
                                      ------------------
             TOTAL POTENTIAL ENERGY =    -434.8311962703
               TOTAL KINETIC ENERGY =     216.6659694393
                 VIRIAL RATIO (V/T) =       2.0069196718

          ---------------------------------------
          MULLIKEN AND LOWDIN POPULATION ANALYSES
          ---------------------------------------

     ATOMIC MULLIKEN POPULATION IN EACH MOLECULAR ORBITAL

                      1          2          3          4          5

                  2.000000   2.000000   2.000000   2.000000   2.000000

    1            -0.000007   1.996428   0.001110   0.001267   0.040943
    2             0.000012   0.001711   0.000032   1.997451   0.012746
    3            -0.000010   0.001379   1.997384   0.000025   0.005390
    4             0.000000   0.000358   0.000005   0.000003   0.001807
    5             0.000000   0.000017   0.000000   0.000412   0.000102
    6             0.000000  -0.000012   0.000001   0.000398   0.000057
    7             0.000000   0.000015   0.000486   0.000000   0.000180
    8             0.000000  -0.000015   0.000493   0.000000   0.000023
    9             0.000000   0.000001   0.000491   0.000000   0.000509
   10            -0.000093   0.000022  -0.000002   0.000450   0.098731
   11             2.000099   0.000096   0.000000  -0.000005   1.839512

                      6          7          8          9         10

                  2.000000   2.000000   2.000000   2.000000   2.000000

    1             0.832187   0.272399   0.610464   0.302951   0.374601
    2             0.466942   0.475344   0.390524   0.444587   0.383667
    3             0.405201   0.752447   0.245650   0.096482   0.425450
    4             0.057909   0.000946   0.308211   0.096123   0.047133
    5             0.022982   0.063992   0.073953   0.206827   0.100336
    6             0.029919   0.043224   0.162511   0.038943   0.078283
    7             0.028467   0.113321   0.038866   0.025191   0.021547
    8             0.035779   0.093573   0.091030   0.031055   0.001078
    9             0.024768   0.114665   0.020649   0.009659   0.151250
   10             0.013124   0.039110   0.013111   0.179471   0.106788
   11             0.082722   0.030980   0.045030   0.568711   0.309865

                     11         12         13         14         15

                  2.000000   2.000000   2.000000   2.000000   2.000000

    1             0.287948   0.214111   0.261919   0.260953   0.162277
    2             0.206607   0.252485   0.307491   0.441003   0.024452
    3             0.709505   0.624515   0.559951   0.264061   0.149881
    4             0.001047   0.000828   0.068762   0.168579   0.060935
    5             0.006440   0.007361   0.110597   0.268979   0.011657
    6             0.092755   0.111345   0.010893   0.301058   0.006222
    7             0.334459   0.102973   0.007557   0.015068   0.133548
    8             0.003266   0.309236   0.215426   0.055258   0.030192
    9             0.166174   0.004832   0.317433   0.003861   0.026393
   10            -0.001234   0.067394   0.012107   0.000416   0.029183
   11             0.193034   0.304920   0.127866   0.220765   1.365258

                     16         17

                  2.000000   2.000000

    1             0.075502   0.230876
    2             0.013056   1.012090
    3             0.069907   0.017779
    4             0.045085   0.008505
    5             0.003115   0.006551
    6             0.006954   0.006952
    7             0.046161   0.009943
    8             0.006759   0.000118
    9             0.005104   0.016190
   10             0.004446   0.079936
   11             1.723911   0.611061

               ----- POPULATIONS IN EACH AO -----
                             MULLIKEN      LOWDIN
              1  C  1  S      1.99264     1.97722
              2  C  1  S      0.73597     0.37555
              3  C  1  X      0.71805     0.62290
              4  C  1  Y      0.71549     0.61973
              5  C  1  Z      0.52109     0.45323
              6  C  1  S      0.56717     0.30071
              7  C  1  X      0.24497     0.38416
              8  C  1  Y      0.16258     0.32185
              9  C  1  Z      0.26183     0.34821
             10  C  1 XX     -0.00614     0.15838
             11  C  1 YY      0.00303     0.17417
             12  C  1 ZZ     -0.01853     0.12655
             13  C  1 XY      0.01170     0.02390
             14  C  1 XZ      0.00707     0.01419
             15  C  1 YZ      0.00902     0.01707
             16  C  2  S      1.99188     1.97791
             17  C  2  S      0.68046     0.35624
             18  C  2  X      0.71424     0.61813
             19  C  2  Y      0.70954     0.63550
             20  C  2  Z      0.71252     0.63812
             21  C  2  S      0.60347     0.32663
             22  C  2  X      0.33376     0.47305
             23  C  2  Y      0.26796     0.41328
             24  C  2  Z      0.42299     0.47926
             25  C  2 XX     -0.00630     0.15367
             26  C  2 YY     -0.00844     0.15317
             27  C  2 ZZ     -0.00728     0.13348
             28  C  2 XY      0.00663     0.01566
             29  C  2 XZ      0.00495     0.01004
             30  C  2 YZ      0.00381     0.00850
             31  C  3  S      1.99192     1.97850
             32  C  3  S      0.69047     0.35371
             33  C  3  X      0.70101     0.61430
             34  C  3  Y      0.71156     0.62024
             35  C  3  Z      0.72200     0.62424
             36  C  3  S      0.59983     0.32207
             37  C  3  X      0.28315     0.41827
             38  C  3  Y      0.30288     0.43127
             39  C  3  Z      0.32905     0.46750
             40  C  3 XX     -0.00706     0.14670
             41  C  3 YY     -0.01161     0.14003
             42  C  3 ZZ     -0.01070     0.14082
             43  C  3 XY      0.00924     0.01733
             44  C  3 XZ      0.00357     0.00692
             45  C  3 YZ      0.00967     0.01852
             46  H  4  S      0.53873     0.49668
             47  H  4  S      0.31517     0.34425
             48  H  4  X      0.00603     0.01621
             49  H  4  Y      0.00283     0.00805
             50  H  4  Z      0.00348     0.00883
             51  H  5  S      0.52627     0.48188
             52  H  5  S      0.34401     0.36481
             53  H  5  X      0.00655     0.01651
             54  H  5  Y      0.00366     0.00973
             55  H  5  Z      0.00284     0.00938
             56  H  6  S      0.52609     0.48149
             57  H  6  S      0.35042     0.36859
             58  H  6  X      0.00497     0.01287
             59  H  6  Y      0.00302     0.00818
             60  H  6  Z      0.00500     0.01409
             61  H  7  S      0.52456     0.48533
             62  H  7  S      0.34109     0.36107
             63  H  7  X      0.00248     0.00714
             64  H  7  Y      0.00418     0.01076
             65  H  7  Z      0.00548     0.01382
             66  H  8  S      0.52786     0.48924
             67  H  8  S      0.33339     0.35805
             68  H  8  X      0.00591     0.01522
             69  H  8  Y      0.00347     0.00945
             70  H  8  Z      0.00264     0.00728
             71  H  9  S      0.52827     0.48944
             72  H  9  S      0.32178     0.35388
             73  H  9  X      0.00231     0.00701
             74  H  9  Y      0.00392     0.01049
             75  H  9  Z      0.00569     0.01473
             76  H 10  S      0.39590     0.33289
             77  H 10  S      0.20104     0.27115
             78  H 10  X      0.00787     0.02181
             79  H 10  Y      0.01111     0.03489
             80  H 10  Z      0.02703     0.09785
             81  F 11  S      1.99319     1.97698
             82  F 11  S      0.94160     0.86753
             83  F 11  X      1.16973     1.14077
             84  F 11  Y      1.01779     0.97177
             85  F 11  Z      1.11096     1.07104
             86  F 11  S      0.98599     0.54665
             87  F 11  X      0.78375     0.80813
             88  F 11  Y      0.67672     0.73351
             89  F 11  Z      0.70166     0.71980
             90  F 11 XX      0.00538     0.16965
             91  F 11 YY      0.01217     0.17062
             92  F 11 ZZ      0.01914     0.16962
             93  F 11 XY      0.00048     0.00075
             94  F 11 XZ      0.00173     0.00305
             95  F 11 YZ      0.00355     0.00620

          ----- MULLIKEN ATOMIC OVERLAP POPULATIONS -----
          (OFF-DIAGONAL ELEMENTS NEED TO BE MULTIPLIED BY 2)

             1           2           3           4           5

    1    4.7653547
    2    0.5428490   5.1924082
    3    0.3776775  -0.0516574   4.9328266
    4    0.3796070  -0.0411964  -0.0433673   0.5829243
    5   -0.0292954   0.3818516   0.0046583  -0.0078151   0.5707077
    6   -0.0380142   0.3876389  -0.0095938   0.0048871  -0.0349619
    7   -0.0285133  -0.0006193   0.3516339   0.0001513  -0.0001830
    8   -0.0316459  -0.0064511   0.3867486   0.0046087   0.0000299
    9   -0.0246456   0.0031261   0.3807974  -0.0043176  -0.0001450
   10   -0.0240795   0.1294877   0.0007515   0.0062267  -0.0024518
   11    0.0366336  -0.1072369  -0.0054795  -0.0154746   0.0009265

             6           7           8           9          10

    6    0.5753186
    7    0.0001209   0.6108224
    8    0.0051185  -0.0269433   0.5696849
    9    0.0001771  -0.0295772  -0.0287841   0.5661773
   10   -0.0021404  -0.0003808   0.0012822  -0.0016597   0.4100470
   11    0.0009519   0.0012700  -0.0003770   0.0008311   0.1258766

            11

   11    9.3859040

          TOTAL MULLIKEN AND LOWDIN ATOMIC POPULATIONS
       ATOM         MULL.POP.    CHARGE          LOW.POP.     CHARGE
    1 C             5.925928    0.074072         5.917818    0.082182
    2 C             6.430200   -0.430200         6.392634   -0.392634
    3 C             6.324996   -0.324996         6.300426   -0.300426
    4 H             0.866234    0.133766         0.874016    0.125984
    5 H             0.883322    0.116678         0.882312    0.117688
    6 H             0.889503    0.110497         0.885213    0.114787
    7 H             0.877781    0.122219         0.878129    0.121871
    8 H             0.873271    0.126729         0.879246    0.120754
    9 H             0.861980    0.138020         0.875552    0.124448
   10 H             0.642959    0.357041         0.758583    0.241417
   11 F             9.423826   -0.423826         9.356071   -0.356071

          -------------------------------
          BOND ORDER AND VALENCE ANALYSIS     BOND ORDER THRESHOLD=0.050
          -------------------------------

                   BOND                       BOND                       BOND
  ATOM PAIR DIST  ORDER      ATOM PAIR DIST  ORDER      ATOM PAIR DIST  ORDER
    1   2  1.383  1.491        1   3  1.497  1.027        1   4  1.087  0.942
    1  10  1.603  0.075        1  11  1.900  0.280        2   5  1.086  0.953
    2   6  1.087  0.955        2  10  1.400  0.335        2  11  2.371  0.058
    3   7  1.098  0.936        3   8  1.093  0.958        3   9  1.091  0.954
   10  11  1.111  0.495

                       TOTAL       BONDED        FREE
      ATOM            VALENCE     VALENCE     VALENCE
    1 C                 3.811       3.811       0.000
    2 C                 3.795       3.795       0.000
    3 C                 3.891       3.891       0.000
    4 H                 0.947       0.947       0.000
    5 H                 0.960       0.960       0.000
    6 H                 0.964       0.964       0.000
    7 H                 0.947       0.947       0.000
    8 H                 0.958       0.958       0.000
    9 H                 0.950       0.950       0.000
   10 H                 0.907       0.907       0.000
   11 F                 0.884       0.884       0.000

          ---------------------
          ELECTROSTATIC MOMENTS
          ---------------------

 POINT   1           X           Y           Z (BOHR)    CHARGE
                -0.568896    1.127777    1.148950        0.00 (A.U.)
         DX          DY          DZ         /D/  (DEBYE)
    -0.366162   -1.047431   -1.734672    2.059192
 ...... END OF PROPERTY EVALUATION ......
 CPU     0: STEP CPU TIME=     0.02 TOTAL CPU TIME=      174.2 (    2.9 MIN)
 TOTAL WALL CLOCK TIME=      174.2 SECONDS, CPU UTILIZATION IS 100.00%
  $VIB   
          IVIB=   0 IATOM=   0 ICOORD=   0 E=     -218.1652268310
  3.164529584E-05 4.995684140E-05 6.533918849E-06-7.800574107E-05 1.775485809E-05
 -4.068152373E-05-2.553659834E-05 3.274252583E-05-2.831134703E-05 1.348987115E-05
 -2.687689733E-05 4.667696931E-06-1.142184066E-05-3.110484820E-05-1.605577986E-05
  3.109418092E-05 2.100077642E-06 4.067143411E-05-1.863085467E-05-8.255683403E-06
  5.072497589E-06 2.072830613E-05-2.883783742E-05 8.637445545E-06-1.391183017E-06
  1.144720842E-05 1.616366776E-05 3.923495698E-05 2.140672752E-05-1.571623281E-05
 -1.206393245E-06-4.033297254E-05 1.901822265E-05
 -3.661622411E-01-1.047430514E+00-1.734671661E+00
 ......END OF GEOMETRY SEARCH......
 CPU     0: STEP CPU TIME=     0.06 TOTAL CPU TIME=      174.3 (    2.9 MIN)
 TOTAL WALL CLOCK TIME=      174.3 SECONDS, CPU UTILIZATION IS 100.00%
               1098593  WORDS OF DYNAMIC MEMORY USED
 EXECUTION OF GAMESS TERMINATED NORMALLY Thu Apr 13 18:12:01 2017
 DDI: 263624 bytes (0.3 MB / 0 MWords) used by master data server.

 ----------------------------------------
 CPU timing information for all processes
 ========================================
 0: 138.310486 + 4.508428 = 142.818914
 1: 135.908071 + 4.617629 = 140.525700
 2: 137.748883 + 3.993625 = 141.742508
 3: 137.280880 + 4.414828 = 141.695708
 4: 94.911008 + 4.882831 = 99.793839
 5: 0.000000 + 0.000000 = 0.000000
 6: 0.000000 + 0.031200 = 0.031200
 7: 0.000000 + 0.000000 = 0.000000
 ----------------------------------------
           Disk usage (in bytes)       
 ========================================
 ----------------------------------------
            Local date and time          
 ========================================
13.04.2017 - 18:12:07.26                          
