          ******************************************************
          *         GAMESS VERSION =  1 MAY 2013 (R1)          *
          *             FROM IOWA STATE UNIVERSITY             *
          * M.W.SCHMIDT, K.K.BALDRIDGE, J.A.BOATZ, S.T.ELBERT, *
          *   M.S.GORDON, J.H.JENSEN, S.KOSEKI, N.MATSUNAGA,   *
          *          K.A.NGUYEN, S.J.SU, T.L.WINDUS,           *
          *       TOGETHER WITH M.DUPUIS, J.A.MONTGOMERY       *
          *         J.COMPUT.CHEM.  14, 1347-1363(1993)        *
          ************ 64 BIT WINDOWS INTEL VERSION ************

  SINCE 1993, STUDENTS AND POSTDOCS WORKING AT IOWA STATE UNIVERSITY
  AND ALSO IN THEIR VARIOUS JOBS AFTER LEAVING ISU HAVE MADE IMPORTANT
  CONTRIBUTIONS TO THE CODE:
     IVANA ADAMOVIC, CHRISTINE AIKENS, YURI ALEXEEV, POOJA ARORA,
     ANDREY ASADCHEV, ROB BELL, PRADIPTA BANDYOPADHYAY, JONATHAN BENTZ,
     BRETT BODE, GALINA CHABAN, WEI CHEN, CHEOL HO CHOI, PAUL DAY,
     ALBERT DEFUSCO, TIM DUDLEY, DMITRI FEDOROV, GRAHAM FLETCHER,
     MARK FREITAG, KURT GLAESEMANN, DAN KEMP, GRANT MERRILL,
     NORIYUKI MINEZAWA, JONATHAN MULLIN, TAKESHI NAGATA,
     SEAN NEDD, HEATHER NETZLOFF, BOSILJKA NJEGIC, RYAN OLSON, MIKE PAK,
     JIM SHOEMAKER, LYUDMILA SLIPCHENKO, SAROM SOK, JIE SONG,
     TETSUYA TAKETSUGU, SIMON WEBB, SOOHAENG YOO, FEDERICO ZAHARIEV

  ADDITIONAL CODE HAS BEEN PROVIDED BY COLLABORATORS IN OTHER GROUPS:
     IOWA STATE UNIVERSITY:
          JOE IVANIC, LAIMUTIS BYTAUTAS, KLAUS RUEDENBERG
     UNIVERSITY OF TOKYO: KIMIHIKO HIRAO, TAKAHITO NAKAJIMA,
          TAKAO TSUNEDA, MUNEAKI KAMIYA, SUSUMU YANAGISAWA,
          KIYOSHI YAGI, MAHITO CHIBA, SEIKEN TOKURA, NAOAKI KAWAKAMI
     UNIVERSITY OF AARHUS: FRANK JENSEN
     UNIVERSITY OF IOWA: VISVALDAS KAIRYS, HUI LI
     NATIONAL INST. OF STANDARDS AND TECHNOLOGY: WALT STEVENS, DAVID GARMER
     UNIVERSITY OF PISA: BENEDETTA MENNUCCI, JACOPO TOMASI
     UNIVERSITY OF MEMPHIS: HENRY KURTZ, PRAKASHAN KORAMBATH
     UNIVERSITY OF ALBERTA: TOBY ZENG, MARIUSZ KLOBUKOWSKI
     UNIVERSITY OF NEW ENGLAND: MARK SPACKMAN
     MIE UNIVERSITY: HIROAKI UMEDA
     MICHIGAN STATE UNIVERSITY:
          KAROL KOWALSKI, MARTA WLOCH, JEFFREY GOUR, JESSE LUTZ,
          WEI LI, PIOTR PIECUCH
     UNIVERSITY OF SILESIA: MONIKA MUSIAL, STANISLAW KUCHARSKI
     FACULTES UNIVERSITAIRES NOTRE-DAME DE LA PAIX:
          OLIVIER QUINET, BENOIT CHAMPAGNE
     UNIVERSITY OF CALIFORNIA - SANTA BARBARA: BERNARD KIRTMAN
     INSTITUTE FOR MOLECULAR SCIENCE:
          KAZUYA ISHIMURA, MICHIO KATOUDA, AND SHIGERU NAGASE
     UNIVERSITY OF NOTRE DAME: DAN CHIPMAN
     KYUSHU UNIVERSITY:
          HARUYUKI NAKANO,
          FENG LONG GU, JACEK KORCHOWIEC, MARCIN MAKOWSKI, AND YURIKO AOKI,
          HIROTOSHI MORI AND EISAKU MIYOSHI
     PENNSYLVANIA STATE UNIVERSITY:
          TZVETELIN IORDANOV, CHET SWALINA, JONATHAN SKONE,
          SHARON HAMMES-SCHIFFER
     WASEDA UNIVERSITY:
          MASATO KOBAYASHI, TOMOKO AKAMA, TSUGUKI TOUMA,
          TAKESHI YOSHIKAWA, YASUHIRO IKABATA, HIROMI NAKAI
     NANJING UNIVERSITY: SHUHUA LI
     UNIVERSITY OF NEBRASKA:
          PEIFENG SU, DEJUN SI, NANDUN THELLAMUREGE, YALI WANG, HUI LI
     UNIVERSITY OF ZURICH:
          ROBERTO PEVERATI, KIM BALDRIDGE
     N. COPERNICUS UNIVERSITY AND JACKSON STATE UNIVERSITY:
          MARIA BARYSZ


 PARALLEL VERSION RUNNING ON     4 PROCESSORS IN     4 NODES.

 EXECUTION OF GAMESS BEGUN Thu Apr 13 15:19:50 2017

            ECHO OF THE FIRST FEW INPUT CARDS -
 INPUT CARD> $CONTRL SCFTYP=rhf DFTTYP=B3LYP RUNTYP=optimize mult=1 MAXIT=50 nzvar=27 $END  
 INPUT CARD> $ZMAT dlc=.t. auto=.t. nonvdw(1)=1,10,2,11 ifzmat(1)=1,1,10, 1,2,11            
 INPUT CARD> fvalue(1)=1.4, 1.9  $end                                                       
 INPUT CARD> $SYSTEM TIMLIM=5000 MEMORY=2000000 $END                                        
 INPUT CARD> $BASIS  GBASIS=N31 NGAUSS=6 ndfunc=1 npfunc=1                                  
 INPUT CARD> diffsp=.f. diffs=.f. $END                                                      
 INPUT CARD> $statpt nstep=500 HSSEND=.f. $end                                              
 INPUT CARD> $force nvib=2 rdhess=.f.  $end                                                 
 INPUT CARD> $scf DIIS=.T. SOSCF=.F. $end                                                   
 INPUT CARD> $DATA                                                                          
 INPUT CARD>  nedoTS CH3-CH2-CH2F                                                           
 INPUT CARD> C1                                                                             
 INPUT CARD> C  6       -0.793970186      0.213788035      0.185485269                      
 INPUT CARD> C  6       -0.840452269      1.553080258     -0.196475016                      
 INPUT CARD> C  6        0.422762709     -0.676928693      0.070310136                      
 INPUT CARD> H  1       -1.695428359     -0.249364138      0.582120596                      
 INPUT CARD> H  1       -1.740028959      2.155635462     -0.078517584                      
 INPUT CARD> H  1        0.014031846      2.054001531     -0.654988861                      
 INPUT CARD> H  1        0.232753210     -1.553786123     -0.564950859                      
 INPUT CARD> H  1        1.275141432     -0.138025500     -0.355742365                      
 INPUT CARD> H  1        0.725431825     -1.068816972      1.047974869                      
 INPUT CARD> H  1       -0.145954025      1.086799718      1.864153089                      
 INPUT CARD> F  9       -0.169374794      2.080924402      1.612125431                      
 INPUT CARD> $END                                                                           
 INPUT CARD>                                                                                
    2000000 WORDS OF MEMORY AVAILABLE

     BASIS OPTIONS
     -------------
     GBASIS=N31          IGAUSS=       6      POLAR=POPN31  
     NDFUNC=       1     NFFUNC=       0     DIFFSP=       F
     NPFUNC=       1      DIFFS=       F     BASNAM=        


     RUN TITLE
     ---------
   nedoTS CH3-CH2-CH2F                                                           

 THE POINT GROUP OF THE MOLECULE IS C1      
 THE ORDER OF THE PRINCIPAL AXIS IS     0

 ATOM      ATOMIC                      COORDINATES (BOHR)
           CHARGE         X                   Y                   Z
 C           6.0    -1.5003860940        0.4040008056        0.3505163332
 C           6.0    -1.5882244942        2.9348961246       -0.3712839437
 C           6.0     0.7989056778       -1.2792097430        0.1328668912
 H           1.0    -3.2038950303       -0.4712298920        1.1000484182
 H           1.0    -3.2881779432        4.0735603526       -0.1483767190
 H           1.0     0.0265163440        3.8815000720       -1.2377494723
 H           1.0     0.4398397897       -2.9362300160       -1.0676023200
 H           1.0     2.4096679021       -0.2608303743       -0.6722555921
 H           1.0     1.3708673720       -2.0197712081        1.9803853444
 H           1.0    -0.2758131141        2.0537536706        3.5227385374
 F           9.0    -0.3200719499        3.9323769209        3.0464753224

          INTERNUCLEAR DISTANCES (ANGS.)
          ------------------------------

                1 C          2 C          3 C          4 H          5 H     

   1 C       0.0000000    1.3934697 *  1.5123097 *  1.0883273 *  2.1761195 *
   2 C       1.3934697 *  0.0000000    2.5767860 *  2.1414950 *  1.0891395 *
   3 C       1.5123097 *  2.5767860 *  0.0000000    2.2206969 *  3.5669647  
   4 H       1.0883273 *  2.1414950 *  2.2206969 *  0.0000000    2.4944849 *
   5 H       2.1761195 *  1.0891395 *  3.5669647    2.4944849 *  0.0000000  
   6 H       2.1784512 *  1.0914670 *  2.8550130 *  3.1238098    1.8491560 *
   7 H       2.1775293 *  3.3075917    1.0993358 *  2.5952213 *  4.2294557  
   8 H       2.1674693 *  2.7131055 *  1.0947543 *  3.1170929    3.7985506  
   9 H       2.1673824 *  3.2977255    1.0959075 *  2.5979005 *  4.2124311  
  10 H       2.0000000 *  2.2239455 *  2.5791567 *  2.4145003 *  2.7308340 *
  11 F       2.4313823 *  2.0000000 *  3.2145878    2.9698475 *  2.3088547 *

                6 H          7 H          8 H          9 H         10 H     

   1 C       2.1784512 *  2.1775293 *  2.1674693 *  2.1673824 *  2.0000000 *
   2 C       1.0914670 *  3.3075917    2.7131055 *  3.2977255    2.2239455 *
   3 C       2.8550130 *  1.0993358 *  1.0947543 *  1.0959075 *  2.5791567 *
   4 H       3.1238098    2.5952213 *  3.1170929    2.5979005 *  2.4145003 *
   5 H       1.8491560 *  4.2294557    3.7985506    4.2124311    2.7308340 *
   6 H       0.0000000    3.6155328    2.5465522 *  3.6274193    2.7031742 *
   7 H       3.6155328    0.0000000    1.7705139 *  1.7548381 *  3.6078607  
   8 H       2.5465522 *  1.7705139 *  0.0000000    1.7717154 *  2.9064833 *
   9 H       3.6274193    1.7548381 *  1.7717154 *  0.0000000    2.4641720 *
  10 H       2.7031742 *  3.6078607    2.9064833 *  2.4641720 *  0.0000000  
  11 F       2.2746802 *  4.2558770    3.2989194    3.3226218    1.0258413 *

               11 F     

   1 C       2.4313823 *
   2 C       2.0000000 *
   3 C       3.2145878  
   4 H       2.9698475 *
   5 H       2.3088547 *
   6 H       2.2746802 *
   7 H       4.2558770  
   8 H       3.2989194  
   9 H       3.3226218  
  10 H       1.0258413 *
  11 F       0.0000000  

  * ... LESS THAN  3.000


     ATOMIC BASIS SET
     ----------------
 THE CONTRACTED PRIMITIVE FUNCTIONS HAVE BEEN UNNORMALIZED
 THE CONTRACTED BASIS FUNCTIONS ARE NOW NORMALIZED TO UNITY

  SHELL TYPE  PRIMITIVE        EXPONENT          CONTRACTION COEFFICIENT(S)

 C         

      1   S       1          3047.5248800    0.001834737132
      1   S       2           457.3695180    0.014037322813
      1   S       3           103.9486850    0.068842622264
      1   S       4            29.2101553    0.232184443216
      1   S       5             9.2866630    0.467941348435
      1   S       6             3.1639270    0.362311985337

      2   L       7             7.8682723   -0.119332419775    0.068999066591
      2   L       8             1.8812885   -0.160854151696    0.316423960957
      2   L       9             0.5442493    1.143456437840    0.744308290898

      3   L      10             0.1687145    1.000000000000    1.000000000000

      4   D      11             0.8000000    1.000000000000

 C         

      5   S      12          3047.5248800    0.001834737132
      5   S      13           457.3695180    0.014037322813
      5   S      14           103.9486850    0.068842622264
      5   S      15            29.2101553    0.232184443216
      5   S      16             9.2866630    0.467941348435
      5   S      17             3.1639270    0.362311985337

      6   L      18             7.8682723   -0.119332419775    0.068999066591
      6   L      19             1.8812885   -0.160854151696    0.316423960957
      6   L      20             0.5442493    1.143456437840    0.744308290898

      7   L      21             0.1687145    1.000000000000    1.000000000000

      8   D      22             0.8000000    1.000000000000

 C         

      9   S      23          3047.5248800    0.001834737132
      9   S      24           457.3695180    0.014037322813
      9   S      25           103.9486850    0.068842622264
      9   S      26            29.2101553    0.232184443216
      9   S      27             9.2866630    0.467941348435
      9   S      28             3.1639270    0.362311985337

     10   L      29             7.8682723   -0.119332419775    0.068999066591
     10   L      30             1.8812885   -0.160854151696    0.316423960957
     10   L      31             0.5442493    1.143456437840    0.744308290898

     11   L      32             0.1687145    1.000000000000    1.000000000000

     12   D      33             0.8000000    1.000000000000

 H         

     13   S      34            18.7311370    0.033494604338
     13   S      35             2.8253944    0.234726953484
     13   S      36             0.6401217    0.813757326146

     14   S      37             0.1612778    1.000000000000

     15   P      38             1.1000000    1.000000000000

 H         

     16   S      39            18.7311370    0.033494604338
     16   S      40             2.8253944    0.234726953484
     16   S      41             0.6401217    0.813757326146

     17   S      42             0.1612778    1.000000000000

     18   P      43             1.1000000    1.000000000000

 H         

     19   S      44            18.7311370    0.033494604338
     19   S      45             2.8253944    0.234726953484
     19   S      46             0.6401217    0.813757326146

     20   S      47             0.1612778    1.000000000000

     21   P      48             1.1000000    1.000000000000

 H         

     22   S      49            18.7311370    0.033494604338
     22   S      50             2.8253944    0.234726953484
     22   S      51             0.6401217    0.813757326146

     23   S      52             0.1612778    1.000000000000

     24   P      53             1.1000000    1.000000000000

 H         

     25   S      54            18.7311370    0.033494604338
     25   S      55             2.8253944    0.234726953484
     25   S      56             0.6401217    0.813757326146

     26   S      57             0.1612778    1.000000000000

     27   P      58             1.1000000    1.000000000000

 H         

     28   S      59            18.7311370    0.033494604338
     28   S      60             2.8253944    0.234726953484
     28   S      61             0.6401217    0.813757326146

     29   S      62             0.1612778    1.000000000000

     30   P      63             1.1000000    1.000000000000

 H         

     31   S      64            18.7311370    0.033494604338
     31   S      65             2.8253944    0.234726953484
     31   S      66             0.6401217    0.813757326146

     32   S      67             0.1612778    1.000000000000

     33   P      68             1.1000000    1.000000000000

 F         

     34   S      69          7001.7130900    0.001819616901
     34   S      70          1051.3660900    0.013916079607
     34   S      71           239.2856900    0.068405324535
     34   S      72            67.3974453    0.233185760119
     34   S      73            21.5199573    0.471267439240
     34   S      74             7.4031013    0.356618546182

     35   L      75            20.8479528   -0.108506975109    0.071628724237
     35   L      76             4.8083083   -0.146451658147    0.345912102697
     35   L      77             1.3440699    1.128688581135    0.722469956367

     36   L      78             0.3581514    1.000000000000    1.000000000000

     37   D      79             0.8000000    1.000000000000

 TOTAL NUMBER OF BASIS SET SHELLS             =   37
 NUMBER OF CARTESIAN GAUSSIAN BASIS FUNCTIONS =   95
 NUMBER OF ELECTRONS                          =   34
 CHARGE OF MOLECULE                           =    0
 SPIN MULTIPLICITY                            =    1
 NUMBER OF OCCUPIED ORBITALS (ALPHA)          =   17
 NUMBER OF OCCUPIED ORBITALS (BETA )          =   17
 TOTAL NUMBER OF ATOMS                        =   11
 THE NUCLEAR REPULSION ENERGY IS      124.1619784683

     $NEO OPTIONS
     ------------
     NUNIQN=       0     BASNUC=DZSNB        NEOSCF=NONE    
     NEOCI =NONE         NUMULT=       2     NUCST =       1
     NAUXNB=       0     VNUCEX=       F     NUCOPT=       F
     NTAUXB=       0     NEOHSS=       F     HSSINI=READH   
     HSSUPD=POWELLUP     DIRNUC=       F     SYMNUC=       F
     QMTOLN= 0.0E+00     USRDEX=       F
     POSNEO=       F     POSPRP=       F
     NEONCI=       F     LOCORB=       0

     LEBEDEV GRID-BASED DFT OPTIONS
     ------------------------------
     DFTTYP=B3LYP   
     NRAD  =      96     NLEB  =     302
     NRAD0 =      24     NLEB0 =     110
     SWOFF =    5.00E-03 (PURE SCF -> DFT)
     SWITCH=    3.00E-04 (COARSE -> TIGHT GRID)
     THRESH=    0.00E+00 GTHRE=    1.00E+00

 GRIMME'S EMPIRICAL DISPERSION CORRECTION= F

     $CONTRL OPTIONS
     ---------------
 SCFTYP=RHF          RUNTYP=OPTIMIZE     EXETYP=RUN     
 MPLEVL=       0     CITYP =NONE         CCTYP =NONE         VBTYP =NONE    
 DFTTYP=B3LYP        TDDFT =NONE    
 MULT  =       1     ICHARG=       0     NZVAR =      27     COORD =UNIQUE  
 PP    =NONE         RELWFN=NONE         LOCAL =NONE         NUMGRD=       F
 ISPHER=      -1     NOSYM =       0     MAXIT =      50     UNITS =ANGS    
 PLTORB=       F     MOLPLT=       F     AIMPAC=       F     FRIEND=        
 NPRINT=       7     IREST =       0     GEOM  =INPUT   
 NORMF =       0     NORMP =       0     ITOL  =      20     ICUT  =       9
 INTTYP=BEST         GRDTYP=BEST         QMTTOL= 1.0E-06

     $SYSTEM OPTIONS
     ---------------
  REPLICATED MEMORY=     2000000 WORDS (ON EVERY NODE).
 DISTRIBUTED MEMDDI=           0 MILLION WORDS IN AGGREGATE,
 MEMDDI DISTRIBUTED OVER   4 PROCESSORS IS           0 WORDS/PROCESSOR.
 TOTAL MEMORY REQUESTED ON EACH PROCESSOR=     2000000 WORDS.
 TIMLIM=        5000.00 MINUTES, OR       3.5 DAYS.
 PARALL= T  BALTYP=  DLB     KDIAG=    0  COREFL= F
 MXSEQ2=     300 MXSEQ3=     150

          ----------------
          PROPERTIES INPUT
          ----------------

     MOMENTS            FIELD           POTENTIAL          DENSITY
 IEMOM =       1   IEFLD =       0   IEPOT =       0   IEDEN =       0
 WHERE =COMASS     WHERE =NUCLEI     WHERE =NUCLEI     WHERE =NUCLEI  
 OUTPUT=BOTH       OUTPUT=BOTH       OUTPUT=BOTH       OUTPUT=BOTH    
 IEMINT=       0   IEFINT=       0                     IEDINT=       0
                                                       MORB  =       0
          EXTRAPOLATION IN EFFECT
          DIIS IN EFFECT
 ORBITAL PRINTING OPTION: NPREO=     1    95     2     1

     -------------------------------
     INTEGRAL TRANSFORMATION OPTIONS
     -------------------------------
     NWORD  =            0
     CUTOFF = 1.0E-09     MPTRAN =       0
     DIRTRF =       F     AOINTS =DUP     

          ----------------------
          INTEGRAL INPUT OPTIONS
          ----------------------
 NOPK  =       1 NORDER=       0 SCHWRZ=       T
 
 
 -----------------------------------------------
  STATISTICS ON AUTOMATIC COORDINATE GENERATION 
 -----------------------------------------------
  NUMBER OF USER SPECIFIED BONDS                              2
  NUMBER OF BONDS                                            10
  NUMBER OF ANGLES                                           18
  NUMBER OF TORSIONS                                         18
  NUMBER OF EXTRA COORD.                                      0
  NUMBER OF EXTRA COORD. FOR CONSTRAINTS                      0
  NUMBER OF CONSTRAINED COORD.                                2
 
  TOTAL NUMBER OF PRIMITIVES                                 46
 -----------------------------------------------

   --- ENCODED Z MATRIX ---
 COORD  TYPE   I   J   K   L   M   N
    1      1    1  10
    2      1    2  11
    3      1    1   4
    4      1    1   2
    5      1    1   3
    6      1    2   6
    7      1    2   5
    8      1    3   8
    9      1    3   7
   10      1    3   9
   11      2    1   2   5
   12      2    1   3   9
   13      2    1   3   8
   14      2    1   2  11
   15      2    1   3   7
   16      2    1   2   6
   17      2    2   1   3
   18      2    2   1   4
   19      2    2   1  10
   20      2    3   1  10
   21      2    3   1   4
   22      2    4   1  10
   23      2    5   2   6
   24      2    5   2  11
   25      2    6   2  11
   26      2    7   3   9
   27      2    7   3   8
   28      2    8   3   9
   29      3    2   1   3   7
   30      3    2   1   3   9
   31      3    2   1   3   8
   32      3    3   1   2   5
   33      3    3   1   2  11
   34      3    3   1   2   6
   35      3    4   1   3   7
   36      3    4   1   2  11
   37      3    4   1   3   9
   38      3    4   1   2   5
   39      3    4   1   2   6
   40      3    4   1   3   8
   41      3    5   2   1  10
   42      3    6   2   1  10
   43      3    7   3   1  10
   44      3    8   3   1  10
   45      3    9   3   1  10
   46      3   10   1   2  11

          INDEP./SYM. INTERNAL COORDINATES
          --------------------------------
 CRD  1=   1.0000 (  1)
 CRD  2=   1.0000 (  2)
 CRD  3=  -0.2986 (  5) -0.1161 ( 11) -0.3370 ( 12) -0.1374 ( 14)  0.1498 ( 15)
           0.1463 ( 16)  0.3900 ( 19) -0.4698 ( 20)  0.1316 ( 24)  0.1283 ( 28)
           0.1087 ( 31)  0.1524 ( 32)  0.2199 ( 33)  0.1619 ( 34)  0.1537 ( 36)
           0.1730 ( 40) -0.1666 ( 41) -0.1571 ( 42) -0.1383 ( 43) -0.1312 ( 45)
 CRD  4=   0.1179 (  3)  0.3870 (  4)  0.5254 (  5)  0.1637 (  7)  0.2502 ( 11)
           0.1424 ( 12) -0.1961 ( 14)  0.3865 ( 15) -0.1028 ( 18)  0.1071 ( 19)
          -0.1254 ( 20)  0.1588 ( 21) -0.2149 ( 23) -0.2422 ( 26) -0.1479 ( 27)
 CRD  5=  -0.2667 ( 11) -0.2508 ( 12) -0.1622 ( 13)  0.2121 ( 14)  0.4643 ( 15)
           0.1853 ( 16) -0.2387 ( 19)  0.1739 ( 20) -0.2900 ( 25) -0.1199 ( 27)
           0.1551 ( 28)  0.2494 ( 33)  0.1762 ( 36)  0.1296 ( 41)  0.1003 ( 43)
           0.1559 ( 44)  0.3053 ( 46)
 CRD  6=  -0.1100 ( 10)  0.3441 ( 11) -0.4657 ( 12)  0.1557 ( 13)  0.2436 ( 15)
          -0.3186 ( 16)  0.2206 ( 18) -0.1552 ( 19) -0.2574 ( 21)  0.1263 ( 22)
          -0.2029 ( 24) -0.1583 ( 27)  0.1398 ( 28) -0.1550 ( 29) -0.1146 ( 30)
          -0.1055 ( 33) -0.1794 ( 36)  0.1050 ( 44) -0.2098 ( 46)
 CRD  7=  -0.4625 (  4)  0.1857 (  5) -0.1108 (  6)  0.1149 ( 14)  0.1340 ( 15)
          -0.1684 ( 16) -0.4400 ( 18) -0.1311 ( 20)  0.4175 ( 21)  0.2560 ( 23)
          -0.1824 ( 24) -0.1061 ( 27) -0.1384 ( 33) -0.1363 ( 36) -0.1300 ( 41)
          -0.1067 ( 42) -0.2748 ( 46)
 CRD  8=   0.1077 (  4) -0.2205 (  5)  0.1266 (  6) -0.1856 (  8)  0.2357 ( 12)
          -0.5949 ( 13)  0.1642 ( 15)  0.1384 ( 16)  0.1076 ( 17)  0.1402 ( 22)
          -0.1471 ( 24)  0.1003 ( 25) -0.1677 ( 26)  0.2063 ( 27)  0.1800 ( 28)
          -0.1504 ( 33) -0.1658 ( 36) -0.1157 ( 41) -0.1460 ( 42)  0.1085 ( 43)
          -0.2768 ( 46)
 CRD  9=  -0.1280 (  3) -0.1022 (  4) -0.3110 (  6)  0.2796 (  7) -0.1013 (  9)
           0.1556 ( 10)  0.2295 ( 11)  0.2294 ( 12) -0.1114 ( 13) -0.1111 ( 15)
          -0.3120 ( 16)  0.1541 ( 17) -0.1014 ( 20) -0.1096 ( 21)  0.1884 ( 22)
          -0.1782 ( 25)  0.1439 ( 27)  0.1400 ( 32)  0.2855 ( 33)  0.1174 ( 34)
           0.2351 ( 36) -0.1067 ( 42)  0.2024 ( 43)  0.2315 ( 44)  0.2058 ( 45)
 CRD 10=  -0.5288 (  3) -0.1452 (  4) -0.1219 (  6)  0.1310 (  7)  0.1792 (  9)
           0.1182 ( 11) -0.1927 ( 13)  0.1866 ( 15) -0.2022 ( 16)  0.1826 ( 17)
           0.1552 ( 19)  0.1674 ( 20) -0.1188 ( 21) -0.2138 ( 22)  0.1746 ( 28)
           0.1680 ( 29)  0.1823 ( 30)  0.1371 ( 31) -0.1713 ( 32) -0.1268 ( 33)
           0.1061 ( 41)  0.2102 ( 42) -0.1267 ( 43) -0.1576 ( 44) -0.1123 ( 45)
           0.1506 ( 46)
 CRD 11=   0.1099 (  5) -0.1854 (  6)  0.4703 (  8)  0.4259 (  9)  0.4622 ( 10)
           0.1019 ( 11) -0.1859 ( 12) -0.1686 ( 13) -0.2096 ( 15) -0.1158 ( 18)
           0.1134 ( 21) -0.1487 ( 23)  0.2181 ( 26)  0.2087 ( 27)  0.1800 ( 28)
 CRD 12=   0.1089 (  4)  0.5563 (  6)  0.5336 (  7)  0.1246 (  8)  0.1119 (  9)
           0.1454 ( 10) -0.2392 ( 11) -0.2197 ( 16)  0.4594 ( 23)
 CRD 13=  -0.3545 (  3) -0.1189 (  8) -0.2436 (  9) -0.1030 ( 22) -0.1717 ( 25)
          -0.3377 ( 29) -0.3397 ( 30) -0.2994 ( 31)  0.1417 ( 32)  0.1438 ( 33)
          -0.1509 ( 35) -0.1529 ( 37) -0.2003 ( 39) -0.1126 ( 40) -0.2765 ( 43)
          -0.2382 ( 44) -0.2785 ( 45)
 CRD 14=  -0.1011 (  7)  0.1412 ( 19) -0.2788 ( 24) -0.2296 ( 25)  0.1464 ( 29)
           0.1537 ( 30)  0.1058 ( 31)  0.3124 ( 32) -0.3835 ( 34)  0.3873 ( 38)
          -0.3086 ( 39)  0.3784 ( 41) -0.3175 ( 42)
 CRD 15=   0.1302 (  3) -0.1005 (  6)  0.1053 (  7)  0.4837 (  9) -0.5176 ( 10)
           0.1678 ( 24) -0.1852 ( 25)  0.1828 ( 27) -0.1677 ( 28)  0.1291 ( 31)
          -0.1802 ( 32) -0.2408 ( 34) -0.1721 ( 35)  0.1069 ( 36) -0.1652 ( 37)
          -0.1315 ( 39) -0.1764 ( 41) -0.2371 ( 42) -0.1044 ( 43)
 CRD 16=  -0.6445 (  8)  0.3316 (  9)  0.3020 ( 10)  0.3381 ( 26) -0.1605 ( 27)
          -0.1729 ( 28)  0.1823 ( 29) -0.1778 ( 30)  0.1785 ( 35) -0.1816 ( 37)
           0.1853 ( 43) -0.1748 ( 45)
 CRD 17=   0.1658 (  3) -0.1161 (  6)  0.1144 (  7) -0.2513 (  9)  0.2558 ( 10)
           0.2327 ( 24) -0.1858 ( 25) -0.2443 ( 27)  0.2536 ( 28)  0.1258 ( 29)
           0.1215 ( 30) -0.1437 ( 31) -0.3108 ( 32) -0.3024 ( 34)  0.1292 ( 36)
          -0.1217 ( 38) -0.1132 ( 39) -0.3285 ( 40) -0.2518 ( 41) -0.2433 ( 42)
          -0.2177 ( 44)
 CRD 18=  -0.1239 (  3)  0.1555 (  4)  0.1397 (  7) -0.1469 ( 18)  0.1949 ( 21)
          -0.2072 ( 22) -0.1034 ( 23) -0.1130 ( 25)  0.3371 ( 35) -0.2755 ( 36)
           0.3224 ( 37) -0.3635 ( 38) -0.3874 ( 39)  0.3062 ( 40) -0.1008 ( 41)
          -0.1247 ( 42)  0.1381 ( 43)  0.1072 ( 44)  0.1234 ( 45)
 CRD 19=  -0.1326 (  3) -0.1294 (  4)  0.1388 (  5) -0.3952 (  7)  0.1260 (  8)
           0.1909 (  9)  0.2553 ( 10) -0.1512 ( 11)  0.1810 ( 12)  0.1268 ( 13)
           0.1544 ( 15)  0.3315 ( 18) -0.1335 ( 20) -0.3003 ( 21)  0.2404 ( 23)
           0.1228 ( 24) -0.2088 ( 26) -0.1164 ( 27) -0.1723 ( 28)  0.1273 ( 37)
          -0.2206 ( 38) -0.1449 ( 39)  0.1351 ( 40) -0.1683 ( 41)
 CRD 20=  -0.5500 (  3)  0.4661 (  6)  0.2260 (  8)  0.1530 ( 11)  0.1586 ( 13)
           0.1296 ( 16) -0.1152 ( 17)  0.1011 ( 21)  0.1866 ( 22) -0.2818 ( 23)
          -0.1039 ( 25) -0.1545 ( 27) -0.1232 ( 28)  0.1612 ( 36) -0.1223 ( 37)
           0.1014 ( 38) -0.1253 ( 42)  0.1564 ( 43)  0.1114 ( 44)
 CRD 21=  -0.1189 (  3)  0.1771 (  4)  0.4193 (  5)  0.2289 (  6) -0.4821 (  7)
          -0.1657 (  8) -0.2107 (  9) -0.1844 ( 10) -0.2022 ( 12) -0.1737 ( 13)
          -0.1855 ( 15) -0.2516 ( 16)  0.1741 ( 23)  0.1216 ( 24)  0.2098 ( 26)
           0.2065 ( 27)  0.1877 ( 28)
 CRD 22=   0.2733 (  3) -0.5365 (  4)  0.4115 (  6) -0.2217 (  8)  0.3127 ( 11)
           0.1021 ( 14)  0.1358 ( 17) -0.1056 ( 21) -0.3145 ( 23) -0.1167 ( 26)
           0.1216 ( 27) -0.1386 ( 29)  0.1311 ( 37) -0.1775 ( 43)
 CRD 23=   0.1994 (  3)  0.2615 (  4) -0.5010 (  5)  0.1816 (  6) -0.3303 (  7)
           0.1770 (  9)  0.2077 ( 11)  0.1185 ( 12)  0.1146 ( 13) -0.3140 ( 16)
           0.1840 ( 17) -0.3399 ( 18)  0.1560 ( 21)  0.1062 ( 23) -0.1424 ( 26)
          -0.1365 ( 27)  0.1069 ( 46)
 CRD 24=  -0.3406 (  9)  0.3469 ( 10) -0.1385 ( 12)  0.1949 ( 15)  0.1496 ( 20)
           0.2292 ( 27) -0.2861 ( 28)  0.3945 ( 31) -0.1751 ( 32) -0.1573 ( 33)
          -0.1798 ( 34) -0.1718 ( 35) -0.2098 ( 37)  0.2546 ( 40) -0.1302 ( 43)
           0.2961 ( 44) -0.1683 ( 45)
 CRD 25=   0.1755 (  3) -0.1660 (  4)  0.3699 (  8) -0.1666 (  9) -0.2058 ( 10)
           0.1394 ( 12) -0.2308 ( 13)  0.1016 ( 15)  0.2291 ( 17) -0.2109 ( 21)
           0.2740 ( 26) -0.1525 ( 27) -0.1251 ( 28)  0.2365 ( 29) -0.2733 ( 30)
           0.3015 ( 35) -0.2083 ( 37)  0.2069 ( 43) -0.3029 ( 45)
 CRD 26=   0.3117 (  4)  0.1279 (  5)  0.6659 ( 14)  0.2589 ( 17) -0.1029 ( 18)
           0.1990 ( 19) -0.1573 ( 21) -0.2908 ( 24) -0.2600 ( 25)  0.1249 ( 30)
           0.1005 ( 31) -0.1277 ( 32)  0.1386 ( 39) -0.1269 ( 41)
 CRD 27=   0.1656 (  5) -0.2057 ( 11)  0.2446 ( 13) -0.2686 ( 14)  0.2648 ( 16)
           0.6179 ( 17) -0.3294 ( 18) -0.1489 ( 19)  0.1380 ( 20) -0.2877 ( 21)
           0.1274 ( 25) -0.1070 ( 29)  0.1061 ( 45)

 THE DETERMINANT OF THE G MATRIX IS 10**(    -9)


                     --------------------
                     INTERNAL COORDINATES
                     --------------------

                 - - ATOMS - -         COORDINATE      COORDINATE
 NO.   TYPE    I  J  K  L  M  N        (BOHR,RAD)       (ANG,DEG)
 ----------------------------------------------------------------
   1 STRETCH   1 10                     3.7794520       2.0000000
   2 STRETCH   2 11                     3.7794520       2.0000000
   3 STRETCH   1  4                     2.0566404       1.0883273
   4 STRETCH   1  2                     2.6332760       1.3934697
   5 STRETCH   1  3                     2.8578509       1.5123097
   6 STRETCH   2  6                     2.0625735       1.0914670
   7 STRETCH   2  5                     2.0581753       1.0891395
   8 STRETCH   3  8                     2.0687856       1.0947543
   9 STRETCH   3  7                     2.0774433       1.0993358
  10 STRETCH   3  9                     2.0709650       1.0959075
  11 BEND      1  2  5                  2.1289188     121.9780643
  12 BEND      1  3  9                  1.9442949     111.3998936
  13 BEND      1  3  8                  1.9456498     111.4775223
  14 BEND      1  2 11                  1.5653893      89.6901985
  15 BEND      1  3  7                  1.9549050     112.0078081
  16 BEND      1  2  6                  2.1295558     122.0145602
  17 BEND      2  1  3                  2.1797877     124.8926375
  18 BEND      2  1  4                  2.0729164     118.7693635
  19 BEND      2  1 10                  1.3911728      79.7083324
  20 BEND      3  1 10                  1.6311660      93.4589262
  21 BEND      3  1  4                  2.0303150     116.3284832
  22 BEND      4  1 10                  1.7195896      98.5252247
  23 BEND      5  2  6                  2.0244026     115.9897242
  24 BEND      5  2 11                  1.6039903      91.9018770
  25 BEND      6  2 11                  1.5668727      89.7751911
  26 BEND      7  3  9                  1.8525302     106.1421606
  27 BEND      7  3  8                  1.8779253     107.5971967
  28 BEND      8  3  9                  1.8840746     107.9495253
  29 TORSION   2  1  3  7              -2.1063736    -120.6863183
  30 TORSION   2  1  3  9               2.1048191     120.5972527
  31 TORSION   2  1  3  8              -0.0010364      -0.0593807
  32 TORSION   3  1  2  5              -3.1254485    -179.0750098
  33 TORSION   3  1  2 11              -1.5188947     -87.0262586
  34 TORSION   3  1  2  6               0.0438934       2.5149046
  35 TORSION   4  1  3  7               1.0153177      58.1734200
  36 TORSION   4  1  2 11               1.6430466      94.1396354
  37 TORSION   4  1  3  9              -1.0566748     -60.5430089
  38 TORSION   4  1  2  5               0.0364928       2.0908842
  39 TORSION   4  1  2  6              -3.0773506    -176.3192014
  40 TORSION   4  1  3  8               3.1206549     178.8003576
  41 TORSION   5  2  1 10              -1.6065538     -92.0487512
  42 TORSION   6  2  1 10               1.5627881      89.5411632
  43 TORSION   7  3  1 10               2.7829984     159.4540599
  44 TORSION   8  3  1 10              -1.3948497     -79.9190025
  45 TORSION   9  3  1 10               0.7110058      40.7376309
  46 TORSION  10  1  2 11               0.0000000       0.0000000

     ------------------------------------------
     THE POINT GROUP IS C1 , NAXIS= 0, ORDER= 1
     ------------------------------------------

     DIMENSIONS OF THE SYMMETRY SUBSPACES ARE
 A   =   95

 ..... DONE SETTING UP THE RUN .....
 CPU     0: STEP CPU TIME=     0.02 TOTAL CPU TIME=        0.0 (    0.0 MIN)
 TOTAL WALL CLOCK TIME=        0.0 SECONDS, CPU UTILIZATION IS  96.41%


          -----------------------------
          STATIONARY POINT LOCATION RUN
          -----------------------------


           ** GEOMETRY CONSTRAINTS ARE BEING APPLIED. **

          TRANSFORMING DISPLACEMENT FROM INTERNALS TO CARTESIANS
          THE ROOT MEAN SQUARE ERROR IN ITERATION   1 IS   0.00583065
          THE ROOT MEAN SQUARE ERROR IN ITERATION   2 IS   0.00003070
          THE ROOT MEAN SQUARE ERROR IN ITERATION   3 IS   0.00000000
 WARNING! THE RADIUS IN CARTESIANS IS    1.09102
 OBTAINING INITIAL HESSIAN, HESS=GUESS   
 DIAGONAL GUESS HESSIAN IN INTERNAL COORDS IS
     1  0.1896     2  0.1236     3  0.3475     4  0.4788     5  0.3800
     6  0.3454     7  0.3469     8  0.3432     9  0.3401    10  0.3424
    11  0.2325    12  0.2248    13  0.2248    14  0.2143    15  0.2246
    16  0.2323    17  0.2597    18  0.2325    19  0.2142    20  0.2078
    21  0.2252    22  0.1889    23  0.2034    24  0.1889    25  0.1888
    26  0.2026    27  0.2027    28  0.2029    29  0.2500    30  0.2500
    31  0.2500    32  0.2500    33  0.2500    34  0.2500    35  0.2500
    36  0.2500    37  0.2500    38  0.2500    39  0.2500    40  0.2500
    41  0.2500    42  0.2500    43  0.2500    44  0.2500    45  0.2500
    46  0.2500
 TRANSFORMING HESSIAN TO SYMMETRY COORDINATES

          PARAMETERS CONTROLLING GEOMETRY SEARCH ARE
          METHOD =QA                  UPHESS =BFGS    
          NNEG   =         0          NFRZ   =         0
          NSTEP  =       500          IFOLOW =         1
          HESS   =GUESS               RESTAR =         F
          IHREP  =         0          HSSEND =         F
          NPRT   =         0          NPUN   =         0
          OPTTOL = 1.000E-04          RMIN   = 1.500E-03
          RMAX   = 1.000E-01          RLIM   = 7.000E-02
          DXMAX  = 3.000E-01          PURIFY =         F
          MOVIE  =         F          TRUPD  =         T
          TRMAX  = 5.000E-01          TRMIN  = 5.000E-02
          ITBMAT =         5          STPT   =         F
          STSTEP = 1.000E-02          PROJCT=          T

 BEGINNING GEOMETRY SEARCH POINT NSERCH=   0 ...

 COORDINATES OF ALL ATOMS ARE (ANGS)
   ATOM   CHARGE       X              Y              Z
 ------------------------------------------------------------
 C           6.0  -0.7854316708   0.2314146015   0.2177081392
 C           6.0  -0.8278601162   1.5745803936  -0.1508883662
 C           6.0   0.4264289445  -0.6637498493   0.0867310669
 H           1.0  -1.6867303578  -0.2314223087   0.6150732448
 H           1.0  -1.7239061954   2.1801062958  -0.0217963190
 H           1.0   0.0262834030   2.0760068315  -0.6094846446
 H           1.0   0.2286318691  -1.5334619498  -0.5559323546
 H           1.0   1.2788333897  -0.1246515758  -0.3390230709
 H           1.0   0.7329307749  -1.0665801785   1.0587381147
 H           1.0  -0.3221504080   0.8288926148   1.3960079717
 F           9.0  -0.1780321031   2.0562444585   1.5683333421


                     --------------------
                     INTERNAL COORDINATES
                     --------------------

                 - - ATOMS - -         COORDINATE      COORDINATE
 NO.   TYPE    I  J  K  L  M  N        (BOHR,RAD)       (ANG,DEG)
 ----------------------------------------------------------------
   1 STRETCH   1 10                     2.6456164       1.4000000
   2 STRETCH   2 11                     3.5904794       1.9000000
   3 STRETCH   1  4                     2.0566404       1.0883273
   4 STRETCH   1  2                     2.6332760       1.3934697
   5 STRETCH   1  3                     2.8578509       1.5123097
   6 STRETCH   2  6                     2.0625735       1.0914670
   7 STRETCH   2  5                     2.0581753       1.0891395
   8 STRETCH   3  8                     2.0687856       1.0947543
   9 STRETCH   3  7                     2.0774433       1.0993358
  10 STRETCH   3  9                     2.0709650       1.0959075
  11 BEND      1  2  5                  2.1289188     121.9780643
  12 BEND      1  3  9                  1.9442949     111.3998936
  13 BEND      1  3  8                  1.9456498     111.4775223
  14 BEND      1  2 11                  1.5653893      89.6901985
  15 BEND      1  3  7                  1.9549050     112.0078081
  16 BEND      1  2  6                  2.1295558     122.0145602
  17 BEND      2  1  3                  2.1797877     124.8926375
  18 BEND      2  1  4                  2.0729164     118.7693635
  19 BEND      2  1 10                  1.3911728      79.7083324
  20 BEND      3  1 10                  1.6311660      93.4589262
  21 BEND      3  1  4                  2.0303150     116.3284832
  22 BEND      4  1 10                  1.7195896      98.5252247
  23 BEND      5  2  6                  2.0244026     115.9897242
  24 BEND      5  2 11                  1.6039903      91.9018770
  25 BEND      6  2 11                  1.5668727      89.7751911
  26 BEND      7  3  9                  1.8525302     106.1421606
  27 BEND      7  3  8                  1.8779253     107.5971967
  28 BEND      8  3  9                  1.8840746     107.9495253
  29 TORSION   2  1  3  7              -2.1063736    -120.6863183
  30 TORSION   2  1  3  9               2.1048191     120.5972527
  31 TORSION   2  1  3  8              -0.0010364      -0.0593807
  32 TORSION   3  1  2  5              -3.1254485    -179.0750098
  33 TORSION   3  1  2 11              -1.5188947     -87.0262586
  34 TORSION   3  1  2  6               0.0438934       2.5149046
  35 TORSION   4  1  3  7               1.0153177      58.1734200
  36 TORSION   4  1  2 11               1.6430466      94.1396354
  37 TORSION   4  1  3  9              -1.0566748     -60.5430089
  38 TORSION   4  1  2  5               0.0364928       2.0908842
  39 TORSION   4  1  2  6              -3.0773506    -176.3192014
  40 TORSION   4  1  3  8               3.1206549     178.8003576
  41 TORSION   5  2  1 10              -1.6065538     -92.0487512
  42 TORSION   6  2  1 10               1.5627881      89.5411632
  43 TORSION   7  3  1 10               2.7829984     159.4540599
  44 TORSION   8  3  1 10              -1.3948497     -79.9190025
  45 TORSION   9  3  1 10               0.7110058      40.7376309
  46 TORSION  10  1  2 11               0.0000000       0.0000000

          ********************
          1 ELECTRON INTEGRALS
          ********************
 ...... END OF ONE-ELECTRON INTEGRALS ......
 CPU     0: STEP CPU TIME=     0.05 TOTAL CPU TIME=        0.1 (    0.0 MIN)
 TOTAL WALL CLOCK TIME=        0.1 SECONDS, CPU UTILIZATION IS  98.84%

          -------------
          GUESS OPTIONS
          -------------
          GUESS =HUCKEL            NORB  =       0          NORDER=       0
          MIX   =       F          PRTMO =       F          PUNMO =       F
          TOLZ  = 1.0E-08          TOLE  = 1.0E-05
          SYMDEN=       F          PURIFY=       F

 INITIAL GUESS ORBITALS GENERATED BY HUCKEL   ROUTINE.
 HUCKEL GUESS REQUIRES     76357 WORDS.

 SYMMETRIES FOR INITIAL GUESS ORBITALS FOLLOW.   BOTH SET(S).
    17 ORBITALS ARE OCCUPIED (    4 CORE ORBITALS).
     5=A        6=A        7=A        8=A        9=A       10=A       11=A   
    12=A       13=A       14=A       15=A       16=A       17=A       18=A   
    19=A       20=A       21=A       22=A       23=A       24=A       25=A   
    26=A       27=A   
 ...... END OF INITIAL ORBITAL SELECTION ......
 CPU     0: STEP CPU TIME=     0.05 TOTAL CPU TIME=        0.1 (    0.0 MIN)
 TOTAL WALL CLOCK TIME=        0.1 SECONDS, CPU UTILIZATION IS  99.58%

                    ----------------------
                    AO INTEGRAL TECHNOLOGY
                    ----------------------
     S,P,L SHELL ROTATED AXIS INTEGRALS, REPROGRAMMED BY
        KAZUYA ISHIMURA (IMS) AND JOSE SIERRA (SYNSTAR).
     S,P,D,L SHELL ROTATED AXIS INTEGRALS PROGRAMMED BY
        KAZUYA ISHIMURA (INSTITUTE FOR MOLECULAR SCIENCE).
     S,P,D,F,G SHELL TO TOTAL QUARTET ANGULAR MOMENTUM SUM 5,
        ERIC PROGRAM BY GRAHAM FLETCHER (ELORET AND NASA ADVANCED
        SUPERCOMPUTING DIVISION, AMES RESEARCH CENTER).
     S,P,D,F,G,L SHELL GENERAL RYS QUADRATURE PROGRAMMED BY
        MICHEL DUPUIS (PACIFIC NORTHWEST NATIONAL LABORATORY).

          --------------------
          2 ELECTRON INTEGRALS
          --------------------

 THE -PK- OPTION IS OFF, THE INTEGRALS ARE NOT IN SUPERMATRIX FORM.
 STORING   15000 INTEGRALS/RECORD ON DISK, USING 12 BYTES/INTEGRAL.
 TWO ELECTRON INTEGRAL EVALUATION REQUIRES   91099 WORDS OF MEMORY.
 SCHWARZ INEQUALITY OVERHEAD:      4553 INTEGRALS, T=        0.00
 II,JST,KST,LST =  1  1  1  1 NREC =         1 INTLOC =    1
 II,JST,KST,LST =  2  1  1  1 NREC =         1 INTLOC =    1
 II,JST,KST,LST =  3  1  1  1 NREC =         1 INTLOC =    1
 II,JST,KST,LST =  4  1  1  1 NREC =         1 INTLOC =    2
 II,JST,KST,LST =  5  1  1  1 NREC =         1 INTLOC =    5
 II,JST,KST,LST =  6  1  1  1 NREC =         1 INTLOC =    5
 II,JST,KST,LST =  7  1  1  1 NREC =         1 INTLOC =    9
 II,JST,KST,LST =  8  1  1  1 NREC =         1 INTLOC =    9
 II,JST,KST,LST =  9  1  1  1 NREC =         2 INTLOC = 1308
 II,JST,KST,LST = 10  1  1  1 NREC =         2 INTLOC = 1308
 II,JST,KST,LST = 11  1  1  1 NREC =         2 INTLOC = 1308
 II,JST,KST,LST = 12  1  1  1 NREC =         2 INTLOC = 1308
 II,JST,KST,LST = 13  1  1  1 NREC =         2 INTLOC = 1308
 II,JST,KST,LST = 14  1  1  1 NREC =         2 INTLOC = 1308
 II,JST,KST,LST = 15  1  1  1 NREC =         2 INTLOC = 1308
 II,JST,KST,LST = 16  1  1  1 NREC =         2 INTLOC = 1308
 II,JST,KST,LST = 17  1  1  1 NREC =         2 INTLOC = 1308
 II,JST,KST,LST = 18  1  1  1 NREC =         2 INTLOC = 1308
 II,JST,KST,LST = 19  1  1  1 NREC =         2 INTLOC = 1308
 II,JST,KST,LST = 20  1  1  1 NREC =         3 INTLOC = 5627
 II,JST,KST,LST = 21  1  1  1 NREC =         6 INTLOC = 6487
 II,JST,KST,LST = 22  1  1  1 NREC =        12 INTLOC = 1144
 II,JST,KST,LST = 23  1  1  1 NREC =        14 INTLOC = 2625
 II,JST,KST,LST = 24  1  1  1 NREC =        17 INTLOC = 4888
 II,JST,KST,LST = 25  1  1  1 NREC =        23 INTLOC =11622
 II,JST,KST,LST = 26  1  1  1 NREC =        25 INTLOC =11914
 II,JST,KST,LST = 27  1  1  1 NREC =        25 INTLOC =11914
 II,JST,KST,LST = 28  1  1  1 NREC =        25 INTLOC =11914
 II,JST,KST,LST = 29  1  1  1 NREC =        26 INTLOC = 2320
 II,JST,KST,LST = 30  1  1  1 NREC =        30 INTLOC = 4352
 II,JST,KST,LST = 31  1  1  1 NREC =        40 INTLOC =   23
 II,JST,KST,LST = 32  1  1  1 NREC =        45 INTLOC = 2483
 II,JST,KST,LST = 33  1  1  1 NREC =        49 INTLOC = 4423
 II,JST,KST,LST = 34  1  1  1 NREC =        64 INTLOC = 8648
 II,JST,KST,LST = 35  1  1  1 NREC =        67 INTLOC =10031
 II,JST,KST,LST = 36  1  1  1 NREC =        83 INTLOC = 3478
 II,JST,KST,LST = 37  1  1  1 NREC =       105 INTLOC = 1415
 SCHWARZ INEQUALITY TEST SKIPPED       36405 INTEGRAL BLOCKS.
 TOTAL NUMBER OF NONZERO TWO-ELECTRON INTEGRALS =             8670376
        580 INTEGRAL RECORDS WERE STORED ON DISK FILE  8.
  ...... END OF TWO-ELECTRON INTEGRALS .....
 CPU     0: STEP CPU TIME=     0.16 TOTAL CPU TIME=        0.3 (    0.0 MIN)
 TOTAL WALL CLOCK TIME=        0.3 SECONDS, CPU UTILIZATION IS  99.79%

          --------------------------
             R-B3LYP SCF CALCULATION
          --------------------------

     NUCLEAR ENERGY =       126.3969960176
     MAXIT =   50     NPUNCH=    2
     EXTRAP=T  DAMP=F  SHIFT=F  RSTRCT=F  DIIS=T  DEM=F  SOSCF=F
         DENSITY MATRIX CONVERGENCE THRESHOLD=  1.00E-05
     COARSE -> FINE DFT GRID SWITCH THRESHOLD=  3.00E-04 (SWITCH IN $DFT)
                   HF -> DFT SWITCH THRESHOLD=  5.00E-03 (SWOFF IN $DFT)
     MEMORY REQUIRED FOR RHF ITERS=    477462 WORDS.

 DFT CODE IS SWITCHING FROM THE FINE GRID NRAD= 96,  NLEB=  302
                      TO THE COARSE GRID NRAD0= 24, NLEB0=  110

     EXCHANGE FUNCTIONAL   =B88&HFX   
     CORRELATION FUNCTIONAL=LYP88&VWN5
     DFT THRESHOLD         =.125E-07
     GRID CHANGE THRESHOLD =.300E-03
 FOR AN EULER-MACLAURIN QUADRATURE USING  96 RADIAL POINTS:
 SMALLEST GAUSSIAN PRIMITIVE EXPONENT=        0.1612777588 OF TYPE -S-
 ON ATOM NUMBER   4 HAS RADIAL NORMALIZATION=  1.000000
  LARGEST GAUSSIAN PRIMITIVE EXPONENT=     7001.7130900000 OF TYPE -S-
 ON ATOM NUMBER  11 HAS RADIAL NORMALIZATION=  1.000000
 DFT IS SWITCHED OFF, PERFORMING PURE SCF UNTIL SWOFF THRESHOLD IS REACHED.

 ITER EX DEM     TOTAL ENERGY        E CHANGE  DENSITY CHANGE    DIIS ERROR
   1  0  0     -216.4851994070  -216.4851994070   0.185333132   0.812954152
          * * *   INITIATING DIIS PROCEDURE   * * *
   2  1  0     -216.9197708516    -0.4345714445   0.136614269   0.100955629
   3  2  0     -216.9550052689    -0.0352344173   0.062441323   0.095400388
   4  3  0     -216.9750421912    -0.0200369223   0.017388392   0.005801156
   5  4  0     -216.9756175883    -0.0005753971   0.005003794   0.003161094
   6  5  0     -216.9756828602    -0.0000652718   0.001265093   0.000628304
 CONVERGED TO SWOFF, SO DFT CALCULATION IS NOW SWITCHED ON.
          * * *   INITIATING DIIS PROCEDURE   * * *
   7  6  0     -218.1094963635    -1.1338135034   0.108774038   0.084482510
   8  7  0     -218.1266933811    -0.0171970176   0.069919578   0.035555439
   9  8  0     -218.1226982248     0.0039951563   0.047218110   0.059025156
  10  9  0     -218.1351087420    -0.0124105171   0.005433508   0.006104110
  11 10  0     -218.1353053851    -0.0001966431   0.001620130   0.001104357
  12 11  0     -218.1353159071    -0.0000105220   0.000765537   0.000434051
  13 12  0     -218.1353179587    -0.0000020516   0.000134899   0.000111221
 DFT CODE IS SWITCHING BACK TO THE FINE GRID
          * * *   INITIATING DIIS PROCEDURE   * * *
  14 13  0     -218.1398866550    -0.0045686963   0.002183483   0.001852548
  15 14  0     -218.1399178870    -0.0000312320   0.000573836   0.000364214
  16 15  0     -218.1399181006    -0.0000002136   0.000395006   0.000384897
  17 16  0     -218.1399187319    -0.0000006313   0.000151202   0.000156815
  18 17  0     -218.1399188206    -0.0000000887   0.000043624   0.000031860
  19 18  0     -218.1399188278    -0.0000000073   0.000016603   0.000009149
  20 19  0     -218.1399188285    -0.0000000007   0.000004493   0.000005199
  21 20  0     -218.1399188288    -0.0000000003   0.000001231   0.000000833

          -----------------
          DENSITY CONVERGED
          -----------------
     TIME TO FORM FOCK OPERATORS=       4.7 SECONDS (       0.2 SEC/ITER)
     TIME TO SOLVE SCF EQUATIONS=       0.1 SECONDS (       0.0 SEC/ITER)

 FINAL R-B3LYP ENERGY IS     -218.1399188288 AFTER  21 ITERATIONS
 DFT EXCHANGE + CORRELATION ENERGY =       -23.5925608812
 TOTAL ELECTRON NUMBER             =        33.9997137076

          ------------
          EIGENVECTORS
          ------------

                      1          2          3          4          5
                  -24.6013   -10.2475   -10.1855   -10.1785    -1.0761
                     A          A          A          A          A   
    1  C  1  S   -0.000028   0.003911   0.016558   0.992842  -0.014648
    2  C  1  S   -0.000067  -0.000122   0.000739   0.050434   0.027245
    3  C  1  X   -0.000008   0.000046  -0.000186   0.000260   0.005156
    4  C  1  Y    0.000001  -0.000304   0.000092   0.000313   0.017092
    5  C  1  Z   -0.000038   0.000167   0.000036   0.000253   0.009126
    6  C  1  S    0.000905   0.004981   0.003042  -0.020191   0.007547
    7  C  1  X    0.000127  -0.000431   0.002188  -0.003092  -0.002073
    8  C  1  Y    0.000051   0.003389  -0.002111  -0.002148   0.001454
    9  C  1  Z    0.000470  -0.000658  -0.000348  -0.000477  -0.001601
   10  C  1 XX   -0.000043  -0.000174  -0.000504  -0.008893  -0.001087
   11  C  1 YY   -0.000125  -0.000420  -0.000397  -0.008808   0.001921
   12  C  1 ZZ   -0.000021  -0.000191  -0.000298  -0.009088   0.000010
   13  C  1 XY   -0.000016   0.000033   0.000186   0.000072   0.000729
   14  C  1 XZ    0.000011  -0.000012   0.000011  -0.000128   0.000715
   15  C  1 YZ   -0.000020   0.000140  -0.000046  -0.000167   0.001525
   16  C  2  S    0.000037   0.993047  -0.000070  -0.004257  -0.024349
   17  C  2  S    0.000003   0.049436  -0.000320  -0.000606   0.046071
   18  C  2  X   -0.000001   0.000184  -0.000069  -0.000030   0.010274
   19  C  2  Y    0.000005   0.000203   0.000074   0.000249  -0.000222
   20  C  2  Z   -0.000020   0.000551  -0.000037   0.000017   0.027959
   21  C  2  S   -0.000599  -0.017622   0.001571   0.006361   0.030318
   22  C  2  X   -0.000153  -0.000521  -0.000038   0.001290   0.003950
   23  C  2  Y   -0.000103   0.001325  -0.000659  -0.002804   0.003000
   24  C  2  Z   -0.000428  -0.002127   0.000468   0.000439   0.009705
   25  C  2 XX    0.000069  -0.008662  -0.000087  -0.000063  -0.002404
   26  C  2 YY    0.000090  -0.008626  -0.000054  -0.000419  -0.001806
   27  C  2 ZZ    0.000080  -0.009224  -0.000121  -0.000090   0.002049
   28  C  2 XY    0.000003  -0.000101   0.000060  -0.000049   0.000092
   29  C  2 XZ    0.000008  -0.000270  -0.000034  -0.000002   0.002177
   30  C  2 YZ   -0.000004  -0.000217  -0.000060   0.000076   0.000102
   31  C  3  S   -0.000003  -0.000125   0.992815  -0.016798  -0.003368
   32  C  3  S   -0.000005  -0.000253   0.049767  -0.001173   0.005110
   33  C  3  X    0.000018   0.000038  -0.000009   0.000076  -0.002557
   34  C  3  Y   -0.000029  -0.000078   0.000045  -0.000010   0.003325
   35  C  3  Z   -0.000010  -0.000014   0.000083   0.000067   0.001163
   36  C  3  S   -0.000219   0.001222  -0.017219   0.006012   0.006467
   37  C  3  X    0.000046  -0.000625   0.001016  -0.001475  -0.000110
   38  C  3  Y    0.000118   0.000254  -0.000790   0.001984   0.002881
   39  C  3  Z   -0.000091   0.000289  -0.000249  -0.000047   0.002663
   40  C  3 XX   -0.000010  -0.000031  -0.009011  -0.000303   0.000016
   41  C  3 YY   -0.000004  -0.000084  -0.008935   0.000013   0.000175
   42  C  3 ZZ   -0.000020  -0.000166  -0.008879   0.000039  -0.000360
   43  C  3 XY   -0.000001  -0.000025   0.000102   0.000143  -0.000661
   44  C  3 XZ    0.000015  -0.000050   0.000005   0.000018  -0.000245
   45  C  3 YZ    0.000005  -0.000024  -0.000011   0.000018   0.000258
   46  H  4  S   -0.000063  -0.000106  -0.000073  -0.000271   0.004592
   47  H  4  S   -0.000081   0.000294   0.000291   0.001640  -0.000082
   48  H  4  X   -0.000011   0.000097   0.000001  -0.000192   0.000678
   49  H  4  Y    0.000009  -0.000021   0.000086  -0.000059   0.000398
   50  H  4  Z   -0.000024  -0.000014  -0.000019   0.000206  -0.000025
   51  H  5  S    0.000091  -0.000185  -0.000054  -0.000040   0.010191
   52  H  5  S   -0.000075   0.002668   0.000096   0.000520   0.003807
   53  H  5  X   -0.000031  -0.000204   0.000028   0.000053   0.001737
   54  H  5  Y    0.000010   0.000098  -0.000016   0.000001  -0.000731
   55  H  5  Z   -0.000018   0.000210  -0.000033  -0.000019   0.000849
   56  H  6  S    0.000089  -0.000168  -0.000074  -0.000257   0.010712
   57  H  6  S   -0.000094   0.002547  -0.000035  -0.000424   0.003927
   58  H  6  X    0.000015   0.000291  -0.000022  -0.000059  -0.000905
   59  H  6  Y    0.000008   0.000061   0.000051   0.000034  -0.000583
   60  H  6  Z   -0.000049   0.000040  -0.000036   0.000010   0.001861
   61  H  7  S    0.000014   0.000000  -0.000107  -0.000213   0.000797
   62  H  7  S    0.000069   0.000038   0.002502  -0.000011   0.001506
   63  H  7  X   -0.000001   0.000023  -0.000088   0.000005   0.000044
   64  H  7  Y    0.000000   0.000027  -0.000136  -0.000024   0.000138
   65  H  7  Z    0.000010   0.000018  -0.000122   0.000035   0.000090
   66  H  8  S   -0.000001  -0.000094  -0.000101  -0.000198   0.001069
   67  H  8  S   -0.000032   0.000202   0.002593  -0.000535  -0.000063
   68  H  8  X   -0.000001   0.000001   0.000120  -0.000040  -0.000155
   69  H  8  Y   -0.000003  -0.000033   0.000142   0.000006  -0.000136
   70  H  8  Z    0.000004   0.000001  -0.000068   0.000019  -0.000026
   71  H  9  S   -0.000002  -0.000018  -0.000086  -0.000130   0.001126
   72  H  9  S    0.000177  -0.000168   0.002606  -0.000070  -0.001644
   73  H  9  X   -0.000007   0.000013   0.000020  -0.000050  -0.000048
   74  H  9  Y    0.000009  -0.000014  -0.000042  -0.000020  -0.000073
   75  H  9  Z   -0.000013  -0.000034   0.000207  -0.000029  -0.000156
   76  H 10  S    0.000235  -0.000002  -0.000060   0.000469   0.062456
   77  H 10  S   -0.001068   0.000033   0.000553   0.002781   0.024190
   78  H 10  X    0.000069  -0.000047   0.000103   0.000028   0.000375
   79  H 10  Y    0.000456   0.000044  -0.000026  -0.000041   0.008250
   80  H 10  Z    0.000104  -0.000112  -0.000037   0.000020  -0.000864
   81  F 11  S    0.992961  -0.000224   0.000059   0.000103  -0.229102
   82  F 11  S    0.019319  -0.001195   0.000331   0.000512   0.499835
   83  F 11  X   -0.000002   0.000042  -0.000014   0.000027  -0.008536
   84  F 11  Y   -0.000184   0.000007  -0.000029  -0.000026  -0.036257
   85  F 11  Z    0.000017   0.000097  -0.000018   0.000053  -0.018017
   86  F 11  S    0.016027   0.004340  -0.001125  -0.001985   0.515442
   87  F 11  X   -0.000092  -0.000427   0.000061  -0.000060  -0.006867
   88  F 11  Y   -0.000028  -0.000179   0.000193   0.000220  -0.024958
   89  F 11  Z   -0.000250  -0.001093   0.000149  -0.000101  -0.015637
   90  F 11 XX   -0.008233  -0.000819   0.000246   0.000392   0.004131
   91  F 11 YY   -0.008476  -0.000919   0.000218   0.000422   0.014499
   92  F 11 ZZ   -0.008171  -0.000760   0.000198   0.000359   0.010189
   93  F 11 XY   -0.000029  -0.000011   0.000006   0.000049   0.001391
   94  F 11 XZ    0.000026   0.000035  -0.000013   0.000023   0.002976
   95  F 11 YZ   -0.000030  -0.000005  -0.000030   0.000156   0.001767

                      6          7          8          9         10
                   -0.7980    -0.6957    -0.5814    -0.4858    -0.4554
                     A          A          A          A          A   
    1  C  1  S   -0.151856   0.001942  -0.115473   0.004708  -0.051617
    2  C  1  S    0.282951  -0.004791   0.230386  -0.009532   0.116428
    3  C  1  X    0.035047   0.083121  -0.078684   0.219232   0.000098
    4  C  1  Y    0.057292  -0.157464  -0.019479   0.148674  -0.128865
    5  C  1  Z   -0.004425   0.016972   0.081703  -0.035947  -0.164788
    6  C  1  S    0.236443  -0.002770   0.244228  -0.010129   0.088127
    7  C  1  X    0.017242   0.019272  -0.023961   0.089853  -0.013464
    8  C  1  Y    0.011671  -0.029541  -0.010292   0.045189  -0.062336
    9  C  1  Z    0.015379  -0.002460   0.037220  -0.006749  -0.088902
   10  C  1 XX   -0.005191   0.010402  -0.004393  -0.003167   0.002041
   11  C  1 YY    0.003604  -0.007729  -0.009394   0.000137  -0.003613
   12  C  1 ZZ   -0.010958  -0.000369  -0.003188   0.001823  -0.006714
   13  C  1 XY   -0.003577  -0.007445   0.005078   0.006727   0.000434
   14  C  1 XZ    0.000047  -0.000852  -0.000470   0.004932  -0.009779
   15  C  1 YZ   -0.001370   0.003220   0.002907   0.003562  -0.010194
   16  C  2  S   -0.123979   0.129047   0.087749   0.007050  -0.000777
   17  C  2  S    0.247307  -0.262336  -0.182867  -0.014064  -0.003102
   18  C  2  X    0.009215   0.018851  -0.030989   0.295938   0.140024
   19  C  2  Y   -0.089556  -0.000581  -0.204586  -0.143858  -0.039804
   20  C  2  Z    0.025709  -0.008393   0.086435  -0.014164  -0.170949
   21  C  2  S    0.172276  -0.228804  -0.194189  -0.020380   0.019295
   22  C  2  X   -0.003655   0.003065  -0.012441   0.111471   0.059922
   23  C  2  Y   -0.008160  -0.003765  -0.057703  -0.052723  -0.016972
   24  C  2  Z   -0.000646   0.000095   0.022398  -0.006145  -0.062963
   25  C  2 XX   -0.008550   0.005291  -0.005671  -0.004551   0.000139
   26  C  2 YY    0.003740   0.004953   0.012631   0.000589   0.006631
   27  C  2 ZZ   -0.010095   0.010117   0.009100   0.004447  -0.009106
   28  C  2 XY   -0.002345  -0.000016   0.001274   0.003603   0.008632
   29  C  2 XZ   -0.000832   0.002948   0.005448   0.003852  -0.005049
   30  C  2 YZ   -0.007368   0.004186  -0.004466  -0.006577   0.005106
   31  C  3  S   -0.097640  -0.156398   0.068910   0.011486   0.008678
   32  C  3  S    0.186099   0.305993  -0.138920  -0.024566  -0.016287
   33  C  3  X   -0.042147   0.003369  -0.113959   0.039718  -0.165137
   34  C  3  Y    0.041398  -0.014644   0.058976   0.161610   0.048396
   35  C  3  Z    0.007036   0.007730   0.035495  -0.009726  -0.152319
   36  C  3  S    0.134849   0.274153  -0.146339  -0.037800  -0.015596
   37  C  3  X   -0.003862   0.002407  -0.031745   0.024831  -0.069052
   38  C  3  Y    0.006639  -0.004515   0.016258   0.073952   0.018162
   39  C  3  Z    0.001190   0.007345   0.007540   0.002686  -0.061551
   40  C  3 XX   -0.000268  -0.006742   0.008866  -0.000348   0.007201
   41  C  3 YY   -0.001926  -0.008214   0.002859   0.004247   0.002897
   42  C  3 ZZ   -0.007045  -0.006686   0.000427  -0.003536  -0.008560
   43  C  3 XY   -0.006612   0.000364  -0.008254  -0.002089  -0.004266
   44  C  3 XZ   -0.001163  -0.000710  -0.001763  -0.002845   0.000350
   45  C  3 YZ    0.000659   0.000342   0.002193  -0.002837   0.002632
   46  H  4  S    0.075296   0.001124   0.145148  -0.146438   0.057469
   47  H  4  S    0.015904   0.002326   0.067771  -0.106556   0.042752
   48  H  4  X    0.006805   0.001020   0.008258  -0.004499   0.002477
   49  H  4  Y    0.004036  -0.002115   0.004689  -0.001833  -0.001198
   50  H  4  Z   -0.003335   0.000340  -0.002859   0.002893  -0.003913
   51  H  5  S    0.061819  -0.101857  -0.115320  -0.188958  -0.091377
   52  H  5  S    0.007871  -0.032914  -0.059258  -0.134948  -0.058669
   53  H  5  X    0.005129  -0.007303  -0.007522  -0.004916  -0.002343
   54  H  5  Y   -0.004647   0.005417   0.001616   0.004756   0.002780
   55  H  5  Z   -0.000794   0.001294   0.002494   0.001109  -0.002311
   56  H  6  S    0.065137  -0.087424  -0.150596   0.086951   0.098443
   57  H  6  S    0.012762  -0.023492  -0.079686   0.059046   0.082571
   58  H  6  X   -0.005189   0.006777   0.008253   0.000394  -0.002373
   59  H  6  Y   -0.004499   0.003457   0.002569  -0.005660  -0.003216
   60  H  6  Z    0.002735  -0.003075  -0.003361   0.002187  -0.000553
   61  H  7  S    0.048827   0.109317  -0.076457  -0.080826   0.037792
   62  H  7  S    0.011662   0.036538  -0.037270  -0.046748   0.028097
   63  H  7  X    0.000528   0.001896  -0.003001   0.000194  -0.002775
   64  H  7  Y    0.004650   0.008021  -0.003993  -0.001298   0.002779
   65  H  7  Z    0.003257   0.006140  -0.003094  -0.002999  -0.001403
   66  H  8  S    0.055304   0.104642  -0.092841   0.054581  -0.032106
   67  H  8  S    0.012289   0.032768  -0.050850   0.041616  -0.016407
   68  H  8  X   -0.005097  -0.007617   0.004238  -0.002539  -0.001350
   69  H  8  Y   -0.002167  -0.005338   0.003836   0.002092   0.002285
   70  H  8  Z    0.002229   0.003826  -0.002079   0.000813  -0.003890
   71  H  9  S    0.052586   0.113231  -0.065151  -0.041895  -0.127571
   72  H  9  S    0.011569   0.034808  -0.029523  -0.030611  -0.098271
   73  H  9  X   -0.002041  -0.003150  -0.000402   0.001573  -0.000080
   74  H  9  Y    0.002517   0.003767  -0.000909   0.001431  -0.002746
   75  H  9  Z   -0.004855  -0.009177   0.005459   0.002130   0.003525
   76  H 10  S    0.060087  -0.003545   0.086737   0.083202  -0.163860
   77  H 10  S   -0.000947   0.012389   0.052459   0.050561  -0.126420
   78  H 10  X   -0.002549   0.002215  -0.003791   0.004074   0.002042
   79  H 10  Y   -0.002917  -0.001797  -0.001782   0.003286  -0.006756
   80  H 10  Z   -0.008363   0.002286  -0.005585  -0.006236   0.003826
   81  F 11  S    0.044082  -0.021913   0.003076   0.016039  -0.036433
   82  F 11  S   -0.095092   0.047936  -0.002045  -0.029801   0.064156
   83  F 11  X   -0.013044   0.020202   0.001447   0.045503   0.097210
   84  F 11  Y   -0.027387   0.006039  -0.074416  -0.130460   0.274003
   85  F 11  Z   -0.034080   0.044735   0.045258  -0.049159   0.087843
   86  F 11  S   -0.127302   0.068276  -0.018649  -0.067054   0.162858
   87  F 11  X   -0.006328   0.012295   0.000187   0.032568   0.066081
   88  F 11  Y   -0.015030   0.005358  -0.043490  -0.086825   0.180989
   89  F 11  Z   -0.017352   0.025518   0.028040  -0.034064   0.060363
   90  F 11 XX    0.000298  -0.000214   0.001622  -0.000458  -0.007370
   91  F 11 YY    0.000926   0.000853   0.007187   0.008587  -0.018440
   92  F 11 ZZ    0.002813  -0.003586  -0.002460   0.004023  -0.007946
   93  F 11 XY    0.000958  -0.001218   0.001308  -0.000197  -0.004334
   94  F 11 XZ    0.001222  -0.002123  -0.001045  -0.002099  -0.003727
   95  F 11 YZ    0.002801  -0.002341   0.000836   0.004974  -0.006396

                     11         12         13         14         15
                   -0.4329    -0.3890    -0.3771    -0.3580    -0.3522
                     A          A          A          A          A   
    1  C  1  S    0.000778  -0.020085  -0.001258  -0.009960   0.013645
    2  C  1  S   -0.009474   0.046269  -0.001859   0.030079  -0.014908
    3  C  1  X    0.054364   0.040717   0.141353   0.311213  -0.008986
    4  C  1  Y   -0.247360  -0.029655  -0.216986   0.040460  -0.019284
    5  C  1  Z    0.151932   0.006430   0.046541  -0.124144  -0.047457
    6  C  1  S    0.038981   0.044299   0.024729   0.017716  -0.100722
    7  C  1  X    0.036613   0.007605   0.045827   0.111679  -0.014843
    8  C  1  Y   -0.076659  -0.004058  -0.052520   0.004557  -0.015519
    9  C  1  Z    0.068253  -0.002201   0.024647  -0.051320  -0.041547
   10  C  1 XX    0.004838   0.010180   0.010120  -0.008533   0.002084
   11  C  1 YY   -0.005549  -0.009013  -0.010191   0.008691  -0.002254
   12  C  1 ZZ    0.002794  -0.003483   0.001076  -0.003719   0.006557
   13  C  1 XY    0.004195  -0.003551  -0.004049  -0.017757  -0.002051
   14  C  1 XZ    0.002709   0.002699  -0.003795   0.010324   0.001608
   15  C  1 YZ    0.000137  -0.009742   0.011036   0.001497  -0.005191
   16  C  2  S    0.010557   0.001679   0.028111  -0.015335  -0.017643
   17  C  2  S   -0.022649  -0.003094  -0.065025   0.035028   0.052875
   18  C  2  X    0.181373  -0.099174  -0.118992  -0.139349  -0.068319
   19  C  2  Y    0.273944   0.007827   0.240877  -0.080890   0.015725
   20  C  2  Z   -0.083156  -0.039985   0.033233   0.053312  -0.213127
   21  C  2  S   -0.025628  -0.027663  -0.088357   0.059428  -0.006692
   22  C  2  X    0.064733  -0.034427  -0.030353  -0.045674  -0.055481
   23  C  2  Y    0.105909   0.008518   0.088865  -0.024850  -0.032823
   24  C  2  Z   -0.032545  -0.025579   0.013554   0.015885  -0.167379
   25  C  2 XX    0.010060   0.002579   0.008265  -0.003880   0.007371
   26  C  2 YY   -0.007340   0.003930  -0.003282   0.003555   0.001404
   27  C  2 ZZ    0.004676  -0.007084   0.003882  -0.003910  -0.008027
   28  C  2 XY    0.006582  -0.004632  -0.011845  -0.017713  -0.002744
   29  C  2 XZ   -0.003576  -0.001859   0.000583   0.004736  -0.007297
   30  C  2 YZ   -0.002535   0.002716   0.004062   0.005213  -0.005300
   31  C  3  S    0.009244  -0.003385  -0.009891  -0.018003   0.003131
   32  C  3  S   -0.016761   0.005588   0.022428   0.038585  -0.006382
   33  C  3  X   -0.175393   0.130170  -0.093582  -0.300538  -0.002530
   34  C  3  Y   -0.020339   0.284839   0.280393  -0.006008  -0.012544
   35  C  3  Z    0.217661   0.237050  -0.219923   0.111518   0.004673
   36  C  3  S   -0.041239   0.028826   0.047810   0.081218  -0.000854
   37  C  3  X   -0.074092   0.055070  -0.047508  -0.133822  -0.009783
   38  C  3  Y   -0.015229   0.131300   0.123931   0.003740  -0.002121
   39  C  3  Z    0.099445   0.110337  -0.098602   0.050233  -0.004784
   40  C  3 XX   -0.000166   0.007214   0.011673  -0.007963  -0.000412
   41  C  3 YY   -0.005371  -0.009020  -0.000553   0.003913   0.000035
   42  C  3 ZZ    0.005021   0.000922  -0.014298  -0.000413   0.001315
   43  C  3 XY   -0.009058  -0.003375   0.001436  -0.015765   0.000030
   44  C  3 XZ    0.001554  -0.004312  -0.010909   0.007805   0.001179
   45  C  3 YZ    0.000558  -0.016159   0.005317   0.003421  -0.000237
   46  H  4  S    0.070857   0.014417  -0.003253  -0.223207  -0.012719
   47  H  4  S    0.060407   0.008840  -0.004655  -0.229543  -0.004312
   48  H  4  X    0.004589   0.000632   0.001507  -0.003561  -0.000971
   49  H  4  Y   -0.003284   0.000297  -0.003780  -0.004167  -0.000597
   50  H  4  Z    0.001519   0.000180   0.001043   0.001346  -0.000218
   51  H  5  S   -0.016937   0.057981   0.132963   0.084887   0.055313
   52  H  5  S   -0.019355   0.064855   0.137663   0.084864   0.045211
   53  H  5  X    0.001936   0.000541   0.003591   0.000831  -0.000764
   54  H  5  Y    0.005518  -0.001521   0.000751  -0.002835  -0.001787
   55  H  5  Z   -0.001124  -0.001368  -0.000022   0.000459  -0.007098
   56  H  6  S    0.173937  -0.036168  -0.035376  -0.119236   0.056046
   57  H  6  S    0.135882  -0.021315  -0.032771  -0.142907   0.043885
   58  H  6  X   -0.004855   0.000379  -0.000084   0.000930  -0.004005
   59  H  6  Y    0.000419   0.000806   0.004576   0.001094  -0.001800
   60  H  6  Z    0.002935  -0.001604  -0.000408  -0.001477  -0.006175
   61  H  7  S   -0.057320  -0.253223  -0.039152   0.017822   0.001770
   62  H  7  S   -0.041237  -0.230066  -0.037742   0.010719  -0.001087
   63  H  7  X   -0.003788   0.000135  -0.002190  -0.005213   0.000020
   64  H  7  Y   -0.002860  -0.005554   0.003625   0.000051  -0.000418
   65  H  7  Z    0.001840  -0.003822  -0.005918   0.002660   0.000052
   66  H  8  S   -0.146457   0.102611   0.114691  -0.187790  -0.009627
   67  H  8  S   -0.106212   0.086523   0.101104  -0.203104  -0.003503
   68  H  8  X    0.003761  -0.001671  -0.006179   0.001398   0.000360
   69  H  8  Y    0.003817   0.002619   0.002105   0.004046   0.000169
   70  H  8  Z    0.000546   0.006714  -0.001887  -0.001469  -0.000019
   71  H  9  S    0.084504   0.098428  -0.211507   0.033884   0.006700
   72  H  9  S    0.071355   0.086895  -0.200383   0.025176   0.013747
   73  H  9  X   -0.005171   0.001061   0.001623  -0.005949  -0.000020
   74  H  9  Y    0.001968   0.007519   0.001479  -0.000075   0.000078
   75  H  9  Z    0.000233   0.000002   0.005774   0.000668   0.000180
   76  H 10  S    0.052806  -0.080002   0.058044  -0.014838   0.061596
   77  H 10  S    0.050920  -0.059886   0.057166  -0.021643   0.187940
   78  H 10  X    0.002396   0.002405   0.000505   0.002319   0.004380
   79  H 10  Y   -0.003345  -0.010014   0.001685  -0.001967   0.004309
   80  H 10  Z   -0.000013   0.000772   0.000919  -0.002820   0.009735
   81  F 11  S    0.013930  -0.017400   0.012216  -0.004117  -0.000559
   82  F 11  S   -0.022352   0.027574  -0.017269   0.006742   0.009078
   83  F 11  X    0.024153   0.049037  -0.096191  -0.074289   0.160715
   84  F 11  Y   -0.059478   0.248041  -0.133109   0.062990  -0.288568
   85  F 11  Z   -0.081588   0.116714  -0.047440   0.051976   0.468867
   86  F 11  S   -0.068387   0.082749  -0.063599   0.019654  -0.018395
   87  F 11  X    0.018545   0.036055  -0.069133  -0.054672   0.113597
   88  F 11  Y   -0.036197   0.174249  -0.090012   0.043428  -0.194951
   89  F 11  Z   -0.055518   0.082303  -0.032096   0.037458   0.328815
   90  F 11 XX    0.002542  -0.003156   0.005522   0.000202   0.000977
   91  F 11 YY    0.006174  -0.013119   0.008892  -0.002605   0.012966
   92  F 11 ZZ    0.007386  -0.006996   0.004223  -0.002630  -0.007367
   93  F 11 XY   -0.001012  -0.003076   0.001619   0.000877  -0.002087
   94  F 11 XZ   -0.000839  -0.001279   0.002183   0.001878  -0.004656
   95  F 11 YZ    0.000434  -0.005387   0.000281  -0.000434  -0.007108

                     16         17         18         19         20
                   -0.3146    -0.2208    -0.0191     0.0923     0.1247
                     A          A          A          A          A   
    1  C  1  S   -0.000064  -0.005029  -0.003400  -0.028473  -0.023090
    2  C  1  S    0.004282   0.002100   0.049215   0.028427   0.027546
    3  C  1  X    0.016311   0.108763  -0.054302  -0.042598  -0.116305
    4  C  1  Y   -0.002380   0.147483  -0.038866  -0.024603   0.001957
    5  C  1  Z   -0.007843   0.350195  -0.179019   0.194546   0.081437
    6  C  1  S   -0.018852   0.127589  -0.184206   0.580541   0.264181
    7  C  1  X    0.019552   0.100058  -0.086060  -0.111128  -0.199670
    8  C  1  Y   -0.010605   0.116831  -0.069172   0.064794   0.107716
    9  C  1  Z   -0.027933   0.276590  -0.234859   0.462354   0.177814
   10  C  1 XX    0.001290  -0.003230   0.007395  -0.001351  -0.007984
   11  C  1 YY    0.001128   0.003574   0.017876   0.009487   0.007569
   12  C  1 ZZ   -0.002196   0.004975  -0.024193  -0.013692  -0.010020
   13  C  1 XY   -0.003457   0.004082   0.003413  -0.011381  -0.021744
   14  C  1 XZ    0.003591   0.001951  -0.012605  -0.001438   0.003688
   15  C  1 YZ    0.001744   0.012515   0.007995  -0.007006   0.002752
   16  C  2  S    0.000815  -0.007537  -0.027278  -0.069513   0.071039
   17  C  2  S   -0.001292   0.038819   0.073770   0.120446  -0.100682
   18  C  2  X   -0.122433   0.066632   0.169333  -0.069308  -0.210558
   19  C  2  Y    0.005477   0.066062   0.110691   0.041750  -0.162142
   20  C  2  Z    0.045657   0.173392   0.475448  -0.089700   0.099921
   21  C  2  S    0.004040  -0.110114   0.150040   0.849225  -1.161180
   22  C  2  X   -0.027863   0.029858   0.213154  -0.118949  -0.544555
   23  C  2  Y   -0.002012   0.086992   0.053651   0.280261  -0.400346
   24  C  2  Z    0.018858   0.089285   0.577524  -0.144749   0.253330
   25  C  2 XX    0.005723   0.004101   0.004928  -0.011647   0.010296
   26  C  2 YY    0.000542  -0.001503   0.006738  -0.010836  -0.000199
   27  C  2 ZZ   -0.005461  -0.000676  -0.015454   0.000483   0.010464
   28  C  2 XY   -0.004882  -0.005495   0.000120   0.009152   0.014695
   29  C  2 XZ    0.009224  -0.004707  -0.008993   0.000562  -0.007368
   30  C  2 YZ    0.000614  -0.018452   0.000678  -0.011024  -0.004807
   31  C  3  S   -0.002678   0.006549  -0.017122  -0.100630  -0.008316
   32  C  3  S    0.001684  -0.010290   0.029511   0.143632   0.026487
   33  C  3  X   -0.030509  -0.002944  -0.030711   0.046128  -0.174317
   34  C  3  Y    0.004508  -0.052052   0.020930  -0.050350  -0.095626
   35  C  3  Z   -0.015981  -0.097328   0.031762   0.058464   0.099492
   36  C  3  S    0.006115  -0.056142   0.192306   1.425378   0.020739
   37  C  3  X   -0.002976   0.010989  -0.046957   0.239076  -0.469688
   38  C  3  Y    0.034017  -0.044366  -0.006869  -0.291151  -0.284146
   39  C  3  Z    0.039426  -0.052199   0.039707   0.103888   0.221013
   40  C  3 XX   -0.001200  -0.007153   0.005636  -0.001594   0.003260
   41  C  3 YY   -0.001455   0.009319  -0.004283  -0.013228  -0.003218
   42  C  3 ZZ   -0.001418  -0.000365  -0.004057  -0.015227  -0.000758
   43  C  3 XY   -0.000930   0.002660  -0.001452   0.000702   0.005247
   44  C  3 XZ   -0.000100  -0.009868   0.008295  -0.011383  -0.005156
   45  C  3 YZ    0.000584   0.016643  -0.012711   0.002158  -0.002322
   46  H  4  S   -0.015068  -0.021210   0.040856   0.021898  -0.072646
   47  H  4  S   -0.015612  -0.038534   0.096889  -0.468801  -0.629042
   48  H  4  X    0.000040   0.001829  -0.001902   0.002496   0.002923
   49  H  4  Y    0.000489   0.003083  -0.002105  -0.000746   0.004366
   50  H  4  Z   -0.000063   0.009473  -0.006913   0.001734  -0.002033
   51  H  5  S    0.076599   0.026436   0.033278  -0.064209  -0.005466
   52  H  5  S    0.052089   0.025824   0.013824  -0.775421   0.115939
   53  H  5  X   -0.000611   0.001433   0.004171   0.002650  -0.004338
   54  H  5  Y   -0.002707   0.000886   0.003631  -0.003979  -0.005895
   55  H  5  Z   -0.003440   0.003033   0.012965  -0.005377   0.002968
   56  H  6  S   -0.079000   0.036596   0.034017   0.005778   0.090883
   57  H  6  S   -0.051634   0.047821  -0.004007  -0.435279   1.555330
   58  H  6  X    0.002346   0.000526   0.004661  -0.007008   0.007235
   59  H  6  Y    0.002834   0.000824   0.003758   0.002685   0.000653
   60  H  6  Z    0.003351   0.003033   0.012086  -0.003961  -0.003461
   61  H  7  S    0.010224   0.099867  -0.053724  -0.017435  -0.012856
   62  H  7  S    0.043237   0.132824  -0.162060  -0.636432  -0.271403
   63  H  7  X   -0.000237   0.002134  -0.002676   0.002663  -0.002551
   64  H  7  Y    0.001821   0.000455   0.001031   0.001001  -0.000659
   65  H  7  Z    0.000441  -0.000426   0.000754   0.003046   0.003086
   66  H  8  S   -0.011392  -0.000959   0.000308   0.027606   0.038169
   67  H  8  S   -0.010177   0.000158  -0.005218  -0.455912   0.830336
   68  H  8  X   -0.000339  -0.000395  -0.000533   0.000519  -0.000847
   69  H  8  Y   -0.000666  -0.000869   0.001239  -0.005470   0.004798
   70  H  8  Z   -0.001368  -0.001988   0.001159   0.001666  -0.001261
   71  H  9  S   -0.016576  -0.084563   0.046355  -0.050513  -0.008494
   72  H  9  S   -0.030768  -0.108669   0.007107  -0.959867  -0.306117
   73  H  9  X   -0.000206  -0.001088   0.002118  -0.001648  -0.004591
   74  H  9  Y   -0.001330  -0.000612  -0.002609  -0.000458  -0.001561
   75  H  9  Z    0.000430   0.001095  -0.001407  -0.004942  -0.000971
   76  H 10  S    0.002467   0.090194  -0.167296  -0.088710  -0.039441
   77  H 10  S   -0.006793   0.084615  -0.337209  -0.702992  -0.240164
   78  H 10  X    0.011167  -0.005672   0.002085  -0.002895  -0.003869
   79  H 10  Y   -0.001087  -0.015133   0.014530   0.004591   0.003374
   80  H 10  Z   -0.004804  -0.008957   0.001581  -0.000255   0.000696
   81  F 11  S   -0.000206   0.020994   0.009719  -0.026869  -0.012532
   82  F 11  S   -0.001901  -0.050832  -0.011867   0.044864  -0.010899
   83  F 11  X    0.594114   0.131746   0.074061   0.009291  -0.013306
   84  F 11  Y   -0.044453   0.315312  -0.165014  -0.103269  -0.050217
   85  F 11  Z   -0.228712   0.275494   0.239075   0.007321  -0.015706
   86  F 11  S    0.005933  -0.106642  -0.068953   0.228037   0.165898
   87  F 11  X    0.445891   0.102936   0.076014   0.000540  -0.012593
   88  F 11  Y   -0.036394   0.250424  -0.145486  -0.153826  -0.058079
   89  F 11  Z   -0.171631   0.218797   0.238069   0.009488  -0.043707
   90  F 11 XX   -0.005239  -0.001057   0.006123  -0.008454  -0.014417
   91  F 11 YY    0.000687  -0.005504  -0.003156  -0.005921  -0.018598
   92  F 11 ZZ    0.001754  -0.001976   0.010869  -0.006751  -0.017781
   93  F 11 XY   -0.010444  -0.001022  -0.001537   0.004009   0.003042
   94  F 11 XZ   -0.003835  -0.000719   0.002178   0.001212  -0.001852
   95  F 11 YZ    0.004761  -0.003112  -0.001752   0.003666   0.000063

                     21         22         23         24         25
                    0.1269     0.1461     0.1716     0.1733     0.2067
                     A          A          A          A          A   
    1  C  1  S    0.057587  -0.039013  -0.028877  -0.111578  -0.065798
    2  C  1  S   -0.064191   0.049445   0.037293   0.124399   0.055855
    3  C  1  X    0.182025  -0.074617  -0.064644   0.006345   0.049122
    4  C  1  Y    0.121672   0.023193   0.003356  -0.129187   0.037463
    5  C  1  Z    0.091444  -0.116913  -0.033871   0.023382   0.223668
    6  C  1  S   -1.066569   0.723311   0.513988   1.950260   1.289891
    7  C  1  X    0.398064  -0.472710  -0.286372  -0.015926   0.246494
    8  C  1  Y    0.476217   0.388186  -0.013294  -0.360900   0.203677
    9  C  1  Z    0.084902  -0.128898  -0.304485   0.186548   0.665903
   10  C  1 XX    0.015253   0.002394   0.015414  -0.014772   0.008939
   11  C  1 YY    0.007386  -0.015299  -0.012006   0.000009  -0.006072
   12  C  1 ZZ   -0.009054   0.008687  -0.009358  -0.004462  -0.015362
   13  C  1 XY    0.009443   0.002504   0.001719   0.021821  -0.004729
   14  C  1 XZ   -0.007782  -0.003314   0.014677   0.001982  -0.019640
   15  C  1 YZ   -0.012536   0.012223   0.002945  -0.005862  -0.002115
   16  C  2  S    0.037172   0.091585   0.028275   0.031653   0.024649
   17  C  2  S   -0.053316  -0.135704  -0.049651  -0.038192  -0.029430
   18  C  2  X    0.137920   0.074889  -0.060523   0.245747  -0.054413
   19  C  2  Y   -0.201153  -0.007028   0.041216  -0.019623  -0.017873
   20  C  2  Z   -0.078341   0.016880   0.023524  -0.077524  -0.020077
   21  C  2  S   -0.749224  -1.486028  -0.395511  -0.471584  -0.475061
   22  C  2  X    0.339414   0.226995  -0.144930   0.821626  -0.169249
   23  C  2  Y   -0.516865   0.197916   0.217869   0.091714   0.120735
   24  C  2  Z   -0.097302  -0.115890   0.134709  -0.297499  -0.138942
   25  C  2 XX    0.013952   0.005014   0.003294  -0.001158  -0.000642
   26  C  2 YY   -0.009004   0.015455   0.007061   0.010606  -0.000237
   27  C  2 ZZ    0.002972   0.006852  -0.002248   0.000508   0.006149
   28  C  2 XY   -0.013645   0.007996   0.007903  -0.014056  -0.002416
   29  C  2 XZ    0.001601  -0.003127   0.002958   0.008008  -0.003692
   30  C  2 YZ   -0.002283   0.002444  -0.002934   0.003002  -0.012212
   31  C  3  S   -0.046100  -0.083178   0.007061   0.069792   0.049696
   32  C  3  S    0.050741   0.072371  -0.012957  -0.096670  -0.010029
   33  C  3  X    0.002427   0.173056   0.171816   0.081924   0.002579
   34  C  3  Y    0.007859  -0.054353   0.215896  -0.183397   0.243884
   35  C  3  Z    0.106512  -0.158406   0.270900   0.094601  -0.171299
   36  C  3  S    0.749890   1.684600  -0.084981  -0.984888  -1.121605
   37  C  3  X   -0.130964   0.411786   0.611636   0.432385   0.263013
   38  C  3  Y   -0.082037   0.060332   0.787407  -0.609276   0.387352
   39  C  3  Z    0.333579  -0.483452   0.925517   0.223641  -0.823318
   40  C  3 XX   -0.014761  -0.011255  -0.001632   0.019864  -0.000127
   41  C  3 YY    0.010254  -0.009251   0.004714   0.002346   0.006420
   42  C  3 ZZ   -0.008862  -0.004771  -0.002265  -0.006050   0.012275
   43  C  3 XY   -0.000533  -0.014122  -0.000456  -0.009424  -0.010859
   44  C  3 XZ   -0.004218   0.012109   0.009060  -0.004629  -0.002703
   45  C  3 YZ    0.001298  -0.000171   0.014594  -0.002730  -0.003575
   46  H  4  S    0.093974  -0.015546  -0.002123  -0.007662   0.062302
   47  H  4  S    1.206357  -0.443892  -0.353204  -1.032343  -0.335819
   48  H  4  X   -0.002173  -0.004360  -0.003473   0.005490   0.000327
   49  H  4  Y   -0.001377   0.004741   0.003155  -0.007903   0.004075
   50  H  4  Z    0.005407  -0.002972  -0.007323  -0.003577   0.005171
   51  H  5  S    0.058715   0.009285  -0.013332   0.078874   0.014742
   52  H  5  S    1.137315   0.777699  -0.147016   1.177579   0.020618
   53  H  5  X   -0.007729  -0.003132  -0.000250  -0.000351  -0.001349
   54  H  5  Y   -0.002535   0.002666   0.000725   0.010418   0.000598
   55  H  5  Z   -0.001541   0.003940  -0.000164  -0.003150  -0.003697
   56  H  6  S   -0.001709   0.061852   0.034601  -0.049043   0.025018
   57  H  6  S    0.117868   0.411509   0.346579  -0.783043   0.300100
   58  H  6  X    0.002990   0.000972   0.000459   0.000304  -0.001124
   59  H  6  Y   -0.008248   0.008580   0.006244  -0.002987   0.002276
   60  H  6  Z   -0.002442  -0.000069   0.000599   0.001304  -0.006185
[...]
   86  F 11  S    0.174986   0.161154  -0.100500  -0.015034   0.773858
   87  F 11  X   -0.019565  -0.012292   0.019419   0.012770  -0.047965
   88  F 11  Y   -0.045188  -0.097532   0.022775   0.022646  -0.383378
   89  F 11  Z   -0.049030   0.003369  -0.001229  -0.002495  -0.030321
   90  F 11 XX   -0.015172  -0.003708   0.010658   0.007009  -0.033578
   91  F 11 YY   -0.018151  -0.007446   0.004680   0.002438  -0.034641
   92  F 11 ZZ   -0.020589  -0.004917   0.010686   0.006677  -0.034277
   93  F 11 XY    0.001487  -0.002152   0.001050   0.003217   0.002469
   94  F 11 XZ   -0.001467  -0.002182  -0.001110   0.000222   0.000923
   95  F 11 YZ   -0.000283   0.003553  -0.002792   0.000343   0.007236

                     26         27
                    0.2696     0.3448
                     A          A   
    1  C  1  S   -0.076648   0.044751
    2  C  1  S    0.056607   0.000117
    3  C  1  X    0.342464   0.069651
    4  C  1  Y   -0.006821  -0.365797
    5  C  1  Z   -0.135120   0.027398
    6  C  1  S    2.036028  -2.284433
    7  C  1  X    2.032808   0.344040
    8  C  1  Y    0.174647  -2.808409
    9  C  1  Z   -0.754808   0.460984
   10  C  1 XX   -0.003049  -0.009699
   11  C  1 YY    0.008492  -0.008971
   12  C  1 ZZ   -0.006656   0.010947
   13  C  1 XY   -0.000473   0.009685
   14  C  1 XZ    0.005638   0.007714
   15  C  1 YZ    0.004485  -0.009059
   16  C  2  S    0.036191  -0.062708
   17  C  2  S   -0.006042  -0.005879
   18  C  2  X   -0.199506  -0.056681
   19  C  2  Y    0.036893  -0.103443
   20  C  2  Z    0.054181   0.098321
   21  C  2  S   -0.980658   2.560579
   22  C  2  X   -1.321663  -0.214558
   23  C  2  Y    0.892016  -2.491783
   24  C  2  Z    0.164508   0.945526
   25  C  2 XX   -0.006922   0.029518
   26  C  2 YY    0.014186  -0.025710
   27  C  2 ZZ    0.001646  -0.011730
   28  C  2 XY   -0.019830  -0.013530
   29  C  2 XZ    0.017209  -0.010495
   30  C  2 YZ    0.002942   0.017405
   31  C  3  S    0.054650   0.011690
   32  C  3  S    0.017505  -0.041512
   33  C  3  X    0.114443   0.224598
   34  C  3  Y   -0.090071  -0.060618
   35  C  3  Z   -0.033554  -0.034055
   36  C  3  S   -1.519184  -0.369222
   37  C  3  X    0.996798   1.105149
   38  C  3  Y   -1.362787   0.150357
   39  C  3  Z   -0.204602  -0.401423
   40  C  3 XX    0.010688   0.014181
   41  C  3 YY    0.010065  -0.012411
   42  C  3 ZZ   -0.007807  -0.008163
   43  C  3 XY   -0.024685  -0.010582
   44  C  3 XZ   -0.001970  -0.015912
   45  C  3 YZ    0.005878   0.005908
   46  H  4  S    0.006002  -0.033898
   47  H  4  S    1.371853  -0.405185
   48  H  4  X    0.000610   0.008514
   49  H  4  Y   -0.004981  -0.007573
   50  H  4  Z   -0.004596   0.000784
   51  H  5  S    0.022571   0.116582
   52  H  5  S   -1.122774   0.220499
   53  H  5  X    0.002253  -0.009957
   54  H  5  Y    0.009597  -0.013410
   55  H  5  Z   -0.004316   0.011421
   56  H  6  S   -0.047371   0.069825
   57  H  6  S    1.085573   0.811342
   58  H  6  X   -0.003365   0.012307
   59  H  6  Y    0.005227  -0.016149
   60  H  6  Z   -0.000392   0.002871
   61  H  7  S   -0.057024  -0.035279
   62  H  7  S   -0.311796   0.057308
   63  H  7  X    0.008829   0.008884
   64  H  7  Y   -0.004856  -0.000906
   65  H  7  Z   -0.000380   0.000681
   66  H  8  S   -0.057099  -0.049748
   67  H  8  S    0.129363  -0.985922
   68  H  8  X    0.001107   0.002592
   69  H  8  Y   -0.007504  -0.008465
   70  H  8  Z    0.000469  -0.002783
   71  H  9  S   -0.048000  -0.053630
   72  H  9  S   -0.275075   0.038469
   73  H  9  X    0.010098  -0.000309
   74  H  9  Y   -0.006200   0.005158
   75  H  9  Z   -0.004685  -0.004114
   76  H 10  S    0.043971  -0.026134
   77  H 10  S   -0.186436   0.485288
   78  H 10  X   -0.001154   0.005556
   79  H 10  Y   -0.003098   0.000176
   80  H 10  Z   -0.004608   0.006844
   81  F 11  S   -0.004850   0.015995
   82  F 11  S   -0.020098   0.009772
   83  F 11  X   -0.020931  -0.004061
   84  F 11  Y   -0.005209   0.049603
   85  F 11  Z    0.013166  -0.004744
   86  F 11  S    0.118369  -0.261915
   87  F 11  X    0.005727   0.023290
   88  F 11  Y   -0.042479   0.115568
   89  F 11  Z   -0.017812   0.035650
   90  F 11 XX   -0.018618   0.024522
   91  F 11 YY   -0.003948   0.006822
   92  F 11 ZZ   -0.010716   0.019347
   93  F 11 XY   -0.000286  -0.002433
   94  F 11 XZ   -0.001896  -0.003000
   95  F 11 YZ    0.002485  -0.000126

     ---------------------------------------------------------------------
     PROPERTIES FOR THE B3LYP    DFT FUNCTIONAL (RHF  TYPE) DENSITY MATRIX
     ---------------------------------------------------------------------

          -----------------
          ENERGY COMPONENTS
          -----------------

         WAVEFUNCTION NORMALIZATION =       1.0000000000

                ONE ELECTRON ENERGY =    -549.1538531773
                TWO ELECTRON ENERGY =     204.2415631125
           NUCLEAR REPULSION ENERGY =     126.7559977352
                                      ------------------
                       TOTAL ENERGY =    -218.1562923297

 ELECTRON-ELECTRON POTENTIAL ENERGY =     204.2415631125
  NUCLEUS-ELECTRON POTENTIAL ENERGY =    -765.8790502111
   NUCLEUS-NUCLEUS POTENTIAL ENERGY =     126.7559977352
                                      ------------------
             TOTAL POTENTIAL ENERGY =    -434.8814893635
               TOTAL KINETIC ENERGY =     216.7251970338
                 VIRIAL RATIO (V/T) =       2.0066032714

          ---------------------------------------
          MULLIKEN AND LOWDIN POPULATION ANALYSES
          ---------------------------------------

     ATOMIC MULLIKEN POPULATION IN EACH MOLECULAR ORBITAL

                      1          2          3          4          5

                  2.000000   2.000000   2.000000   2.000000   2.000000

    1             0.000014   0.001534   0.001803   1.995805   0.012258
    2            -0.000030   1.997337   0.000045   0.001632   0.045140
    3             0.000000   0.000033   1.996668   0.001801   0.000833
    4             0.000000   0.000010   0.000008   0.000251   0.000092
    5            -0.000001   0.000494   0.000000   0.000011   0.001851
    6            -0.000001   0.000465   0.000000  -0.000012   0.001807
    7             0.000000   0.000000   0.000483   0.000007   0.000034
    8             0.000000   0.000001   0.000486  -0.000018   0.000002
    9             0.000000   0.000000   0.000494   0.000004  -0.000026
   10            -0.000109   0.000052   0.000011   0.000526   0.115722
   11             2.000126   0.000075   0.000000  -0.000006   1.822286

                      6          7          8          9         10

                  2.000000   2.000000   2.000000   2.000000   2.000000

    1             0.794232   0.214584   0.432680   0.449875   0.270321
    2             0.631395   0.380187   0.601011   0.342805   0.543940
    3             0.273498   0.880802   0.192300   0.105422   0.255985
    4             0.051982   0.000821   0.165225   0.212997   0.003465
    5             0.034551   0.068735   0.131402   0.162918   0.182211
    6             0.041378   0.042902   0.230926   0.007595   0.133923
    7             0.017332   0.126911   0.038827   0.013837   0.015987
    8             0.024609   0.114748   0.062625   0.042163   0.001827
    9             0.017349   0.129596   0.026513   0.000291   0.100804
   10             0.026048   0.004949   0.057295   0.173145   0.096199
   11             0.087627   0.035765   0.061195   0.488950   0.395339

                     11         12         13         14         15

                  2.000000   2.000000   2.000000   2.000000   2.000000

    1             0.427306   0.057602   0.254969   0.018811   0.469662
    2             0.473575   0.027817   0.253719   0.287607   0.105333
    3             0.441957   0.921007   0.712497   0.016618   0.459710
    4             0.058461   0.001053   0.004008   0.005963   0.369632
    5             0.003817   0.014784   0.123157   0.010213   0.061015
    6             0.189778   0.011483   0.004270   0.040651   0.094011
    7             0.034658   0.527011   0.034042   0.001891   0.001431
    8             0.144003   0.088997   0.135726   0.003212   0.269733
    9             0.069952   0.139785   0.339837   0.006360   0.010031
   10             0.019954   0.013487   0.010915   0.043347  -0.000882
   11             0.136539   0.196974   0.126860   1.565327   0.160325

                     16         17

                  2.000000   2.000000

    1             0.022378   0.840606
    2             0.084232   0.315044
    3             0.016744   0.045676
    4             0.011035   0.005936
    5             0.054106   0.008020
    6             0.054117   0.007811
    7            -0.000012   0.069592
    8             0.002242   0.001373
    9             0.003612   0.040348
   10             0.005128   0.069514
   11             1.746417   0.596081

               ----- POPULATIONS IN EACH AO -----
                             MULLIKEN      LOWDIN
              1  C  1  S      1.99209     1.97690
              2  C  1  S      0.68364     0.35399
              3  C  1  X      0.70767     0.61921
              4  C  1  Y      0.72548     0.63472
              5  C  1  Z      0.69130     0.63214
              6  C  1  S      0.57010     0.30237
              7  C  1  X      0.28118     0.41496
              8  C  1  Y      0.17743     0.33364
              9  C  1  Z      0.43103     0.48243
             10  C  1 XX     -0.00371     0.15363
             11  C  1 YY      0.00275     0.17023
             12  C  1 ZZ     -0.01828     0.11195
             13  C  1 XY      0.01070     0.02390
             14  C  1 XZ      0.00320     0.00641
             15  C  1 YZ      0.00985     0.01806
             16  C  2  S      1.99232     1.97814
             17  C  2  S      0.73147     0.37640
             18  C  2  X      0.73691     0.62966
             19  C  2  Y      0.76664     0.66493
             20  C  2  Z      0.48583     0.42439
             21  C  2  S      0.58980     0.32128
             22  C  2  X      0.29105     0.43838
             23  C  2  Y      0.23339     0.36517
             24  C  2  Z      0.26607     0.34604
             25  C  2 XX     -0.00761     0.15981
             26  C  2 YY     -0.00704     0.16924
             27  C  2 ZZ     -0.01557     0.12147
             28  C  2 XY      0.01161     0.02506
             29  C  2 XZ      0.00444     0.00864
             30  C  2 YZ      0.01148     0.02478
             31  C  3  S      1.99192     1.97859
             32  C  3  S      0.68570     0.35072
             33  C  3  X      0.69508     0.60832
             34  C  3  Y      0.70816     0.61690
             35  C  3  Z      0.71086     0.61632
             36  C  3  S      0.60651     0.32461
             37  C  3  X      0.28575     0.42353
             38  C  3  Y      0.31153     0.43867
             39  C  3  Z      0.33245     0.47429
             40  C  3 XX     -0.00776     0.14420
             41  C  3 YY     -0.01155     0.13937
             42  C  3 ZZ     -0.01116     0.14006
             43  C  3 XY      0.00873     0.01611
             44  C  3 XZ      0.00390     0.00770
             45  C  3 YZ      0.01142     0.02259
             46  H  4  S      0.52967     0.48850
             47  H  4  S      0.34834     0.36367
             48  H  4  X      0.00631     0.01582
             49  H  4  Y      0.00294     0.00817
             50  H  4  Z      0.00367     0.01114
             51  H  5  S      0.53561     0.49012
             52  H  5  S      0.30924     0.34526
             53  H  5  X      0.00639     0.01723
             54  H  5  Y      0.00416     0.01083
             55  H  5  Z      0.00190     0.00557
             56  H  6  S      0.53506     0.48987
             57  H  6  S      0.31361     0.34861
             58  H  6  X      0.00586     0.01546
             59  H  6  Y      0.00343     0.00905
             60  H  6  Z      0.00313     0.00893
             61  H  7  S      0.52795     0.49268
             62  H  7  S      0.34218     0.36508
             63  H  7  X      0.00242     0.00701
             64  H  7  Y      0.00430     0.01116
             65  H  7  Z      0.00518     0.01332
             66  H  8  S      0.52948     0.49271
             67  H  8  S      0.35035     0.36675
             68  H  8  X      0.00578     0.01450
             69  H  8  Y      0.00340     0.00924
             70  H  8  Z      0.00272     0.00760
             71  H  9  S      0.52961     0.49366
             72  H  9  S      0.34346     0.36516
             73  H  9  X      0.00252     0.00721
             74  H  9  Y      0.00386     0.01019
             75  H  9  Z      0.00550     0.01417
             76  H 10  S      0.40841     0.34128
             77  H 10  S      0.17635     0.25564
             78  H 10  X      0.00829     0.02213
             79  H 10  Y      0.02656     0.09998
             80  H 10  Z      0.01570     0.04710
             81  F 11  S      1.99317     1.97700
             82  F 11  S      0.94341     0.86629
             83  F 11  X      1.17434     1.14702
             84  F 11  Y      1.03093     0.97303
             85  F 11  Z      1.09739     1.06463
             86  F 11  S      0.97629     0.54306
             87  F 11  X      0.79254     0.81036
             88  F 11  Y      0.64715     0.69367
             89  F 11  Z      0.72083     0.75307
             90  F 11 XX      0.00598     0.16909
             91  F 11 YY      0.02049     0.17169
             92  F 11 ZZ      0.01303     0.16860
             93  F 11 XY      0.00114     0.00160
             94  F 11 XZ      0.00090     0.00162
             95  F 11 YZ      0.00229     0.00457

          ----- MULLIKEN ATOMIC OVERLAP POPULATIONS -----
          (OFF-DIAGONAL ELEMENTS NEED TO BE MULTIPLIED BY 2)

             1           2           3           4           5

    1    5.1005509
    2    0.5567071   4.8939503
    3    0.3739863  -0.0456957   4.8909185
    4    0.3873590  -0.0439382  -0.0426154   0.5928761
    5   -0.0276810   0.3731110   0.0044490  -0.0081011   0.5589380
    6   -0.0336328   0.3760453  -0.0091388   0.0050674  -0.0348387
    7   -0.0338519  -0.0036145   0.3847491  -0.0020155  -0.0000805
    8   -0.0360114  -0.0068063   0.3853832   0.0045119   0.0000317
    9   -0.0360149   0.0041744   0.3834611  -0.0008421  -0.0001816
   10    0.1193600  -0.0376395  -0.0053938  -0.0023906   0.0048407
   11   -0.1063312   0.0244958   0.0014459   0.0010260  -0.0132008

             6           7           8           9          10

    6    0.5601034
    7    0.0004112   0.6027187
    8    0.0054025  -0.0297068   0.5987063
    9    0.0000454  -0.0374482  -0.0301223   0.6043016
   10    0.0045932   0.0009428  -0.0001557  -0.0027385   0.4109524
   11   -0.0129555  -0.0000735   0.0004972   0.0003146   0.1429314

            11

   11    9.3817308

          TOTAL MULLIKEN AND LOWDIN ATOMIC POPULATIONS
       ATOM         MULL.POP.    CHARGE          LOW.POP.     CHARGE
    1 C             6.264440   -0.264440         6.234549   -0.234549
    2 C             6.090790   -0.090790         6.053394   -0.053394
    3 C             6.321549   -0.321549         6.301968   -0.301968
    4 H             0.890937    0.109063         0.887302    0.112698
    5 H             0.857287    0.142713         0.869018    0.130982
    6 H             0.861103    0.138897         0.871910    0.128090
    7 H             0.882031    0.117969         0.889246    0.110754
    8 H             0.891730    0.108270         0.890790    0.109210
    9 H             0.884949    0.115051         0.890385    0.109615
   10 H             0.635302    0.364698         0.766130    0.233870
   11 F             9.419881   -0.419881         9.345308   -0.345308

          -------------------------------
          BOND ORDER AND VALENCE ANALYSIS     BOND ORDER THRESHOLD=0.050
          -------------------------------

                   BOND                       BOND                       BOND
  ATOM PAIR DIST  ORDER      ATOM PAIR DIST  ORDER      ATOM PAIR DIST  ORDER
    1   2  1.368  1.564        1   3  1.514  1.014        1   4  1.089  0.949
    1  10  1.400  0.286        1  11  2.375  0.062        2   5  1.084  0.943
    2   6  1.085  0.943        2  10  1.546  0.081        2  11  1.900  0.264
    3   7  1.098  0.958        3   8  1.095  0.963        3   9  1.096  0.959
   10  11  1.082  0.538

                       TOTAL       BONDED        FREE
      ATOM            VALENCE     VALENCE     VALENCE
    1 C                 3.843       3.843       0.000
    2 C                 3.816       3.816       0.000
    3 C                 3.900       3.900       0.000
    4 H                 0.958       0.958       0.000
    5 H                 0.948       0.948       0.000
    6 H                 0.953       0.953       0.000
    7 H                 0.948       0.948       0.000
    8 H                 0.956       0.956       0.000
    9 H                 0.948       0.948       0.000
   10 H                 0.903       0.903       0.000
   11 F                 0.881       0.881       0.000

          ---------------------
          ELECTROSTATIC MOMENTS
          ---------------------

 POINT   1           X           Y           Z (BOHR)    CHARGE
                -0.581727    1.672431    1.010871        0.00 (A.U.)
         DX          DY          DZ         /D/  (DEBYE)
    -0.498541   -1.057557   -1.605627    1.986204
 ...... END OF PROPERTY EVALUATION ......
 CPU     0: STEP CPU TIME=     0.02 TOTAL CPU TIME=      179.0 (    3.0 MIN)
 TOTAL WALL CLOCK TIME=      179.0 SECONDS, CPU UTILIZATION IS 100.00%
  $VIB   
          IVIB=   0 IATOM=   0 ICOORD=   0 E=     -218.1562923297
 -1.584071189E-05-3.697352016E-06 8.092942049E-05-4.293056974E-05 4.432799007E-05
 -9.793793418E-06-1.232327737E-05 1.532574035E-05-1.712070451E-05-9.103355877E-06
 -1.108456102E-05-4.147161192E-05-1.773084555E-05-2.600643572E-05-2.801542325E-05
  1.548263083E-05-4.307223798E-06 2.377650246E-05-3.812486854E-06-3.436212841E-06
  3.056864366E-06 7.335188132E-06-3.560818216E-06 1.459856375E-05 8.863648343E-06
  9.798748148E-06 6.237955542E-06 3.930192711E-05 2.904450839E-05-3.844035615E-05
  3.075785285E-05-4.640438336E-05 6.242582648E-06
 -4.985409420E-01-1.057556975E+00-1.605626936E+00
 ......END OF GEOMETRY SEARCH......
 CPU     0: STEP CPU TIME=     0.05 TOTAL CPU TIME=      179.1 (    3.0 MIN)
 TOTAL WALL CLOCK TIME=      179.1 SECONDS, CPU UTILIZATION IS 100.00%
               1098593  WORDS OF DYNAMIC MEMORY USED
 EXECUTION OF GAMESS TERMINATED NORMALLY Thu Apr 13 15:22:49 2017
 DDI: 263624 bytes (0.3 MB / 0 MWords) used by master data server.

 ----------------------------------------
 CPU timing information for all processes
 ========================================
 0: 144.987329 + 4.570829 = 149.558158
 1: 141.914109 + 4.602029 = 146.516138
 2: 142.085710 + 3.572422 = 145.658132
 3: 142.116911 + 3.962425 = 146.079336
 4: 92.336991 + 4.664429 = 97.001420
 5: 0.000000 + 0.000000 = 0.000000
 6: 0.000000 + 0.015600 = 0.015600
 7: 0.000000 + 0.015600 = 0.015600
 ----------------------------------------
           Disk usage (in bytes)       
 ========================================
 ----------------------------------------
            Local date and time          
 ========================================
13.04.2017 - 15:22:56.00                          
